 Entering Gaussian System, Link 0=g16
 Initial command:
 /opt/apps/chemistry/Gaussian/g16/l1.exe "/tmp/Gau-62656.inp" -scrdir="/tmp/"
 Entering Link 1 = /opt/apps/chemistry/Gaussian/g16/l1.exe PID=     62657.
  
 Copyright (c) 1988,1990,1992,1993,1995,1998,2003,2009,2016,
            Gaussian, Inc.  All Rights Reserved.
  
 This is part of the Gaussian(R) 16 program.  It is based on
 the Gaussian(R) 09 system (copyright 2009, Gaussian, Inc.),
 the Gaussian(R) 03 system (copyright 2003, Gaussian, Inc.),
 the Gaussian(R) 98 system (copyright 1998, Gaussian, Inc.),
 the Gaussian(R) 94 system (copyright 1995, Gaussian, Inc.),
 the Gaussian 92(TM) system (copyright 1992, Gaussian, Inc.),
 the Gaussian 90(TM) system (copyright 1990, Gaussian, Inc.),
 the Gaussian 88(TM) system (copyright 1988, Gaussian, Inc.),
 the Gaussian 86(TM) system (copyright 1986, Carnegie Mellon
 University), and the Gaussian 82(TM) system (copyright 1983,
 Carnegie Mellon University). Gaussian is a federally registered
 trademark of Gaussian, Inc.
  
 This software contains proprietary and confidential information,
 including trade secrets, belonging to Gaussian, Inc.
  
 This software is provided under written license and may be
 used, copied, transmitted, or stored only in accord with that
 written license.
  
 The following legend is applicable only to US Government
 contracts under FAR:
  
                    RESTRICTED RIGHTS LEGEND
  
 Use, reproduction and disclosure by the US Government is
 subject to restrictions as set forth in subparagraphs (a)
 and (c) of the Commercial Computer Software - Restricted
 Rights clause in FAR 52.227-19.
  
 Gaussian, Inc.
 340 Quinnipiac St., Bldg. 40, Wallingford CT 06492
  
  
 ---------------------------------------------------------------
 Warning -- This program may not be used in any manner that
 competes with the business of Gaussian, Inc. or will provide
 assistance to any competitor of Gaussian, Inc.  The licensee
 of this program is prohibited from giving any competitor of
 Gaussian, Inc. access to this program.  By using this program,
 the user acknowledges that Gaussian, Inc. is engaged in the
 business of creating and licensing software in the field of
 computational chemistry and represents and warrants to the
 licensee that it is not a competitor of Gaussian, Inc. and that
 it will not use this program in any manner prohibited above.
 ---------------------------------------------------------------
  

 Cite this work as:
 Gaussian 16, Revision A.03,
 M. J. Frisch, G. W. Trucks, H. B. Schlegel, G. E. Scuseria, 
 M. A. Robb, J. R. Cheeseman, G. Scalmani, V. Barone, 
 G. A. Petersson, H. Nakatsuji, X. Li, M. Caricato, A. V. Marenich, 
 J. Bloino, B. G. Janesko, R. Gomperts, B. Mennucci, H. P. Hratchian, 
 J. V. Ortiz, A. F. Izmaylov, J. L. Sonnenberg, D. Williams-Young, 
 F. Ding, F. Lipparini, F. Egidi, J. Goings, B. Peng, A. Petrone, 
 T. Henderson, D. Ranasinghe, V. G. Zakrzewski, J. Gao, N. Rega, 
 G. Zheng, W. Liang, M. Hada, M. Ehara, K. Toyota, R. Fukuda, 
 J. Hasegawa, M. Ishida, T. Nakajima, Y. Honda, O. Kitao, H. Nakai, 
 T. Vreven, K. Throssell, J. A. Montgomery, Jr., J. E. Peralta, 
 F. Ogliaro, M. J. Bearpark, J. J. Heyd, E. N. Brothers, K. N. Kudin, 
 V. N. Staroverov, T. A. Keith, R. Kobayashi, J. Normand, 
 K. Raghavachari, A. P. Rendell, J. C. Burant, S. S. Iyengar, 
 J. Tomasi, M. Cossi, J. M. Millam, M. Klene, C. Adamo, R. Cammi, 
 J. W. Ochterski, R. L. Martin, K. Morokuma, O. Farkas, 
 J. B. Foresman, and D. J. Fox, Gaussian, Inc., Wallingford CT, 2016.
 
 ******************************************
 Gaussian 16:  ES64L-G16RevA.03 25-Dec-2016
                 6-Feb-2020 
 ******************************************
 %mem=360GB
 %nprocshared=40
 Will use up to   40 processors via shared memory.
 %Chk=/users/psyche/volatile/gaussian/nanohybrid/chk/A1.chk
 ----------------------------------------------------------------------
 # wB97XD/Def2SVP Opt # SCRF=(SMD,Solvent=Water) # Integral=(Grid=Ultra
 FineGrid)
 ----------------------------------------------------------------------
 1/18=20,19=15,26=6,38=1/1,3;
 2/9=110,12=2,17=6,18=5,40=1/2;
 3/5=43,7=101,11=2,25=1,30=1,70=32201,71=1,72=1,74=-58,75=-5/1,2,3;
 4//1;
 5/5=2,38=5,53=1/2;
 6/7=2,8=2,9=2,10=2,28=1/1;
 7//1,2,3,16;
 1/18=20,19=15,26=6/3(2);
 2/9=110/2;
 99//99;
 2/9=110/2;
 3/5=43,7=101,11=2,25=1,30=1,70=32205,71=1,72=1,74=-58,75=-5/1,2,3;
 4/5=5,16=3,69=1/1;
 5/5=2,38=5,53=1/2;
 7//1,2,3,16;
 1/18=20,19=15,26=6/3(-5);
 2/9=110/2;
 6/7=2,8=2,9=2,10=2,19=2,28=1/1;
 99/9=1/99;
 ------------------------------
 Geometry optimisation, Mol: A1
 ------------------------------
 Symbolic Z-matrix:
 Charge =  0 Multiplicity = 1
 O                    -3.60496   2.34114   8.75265 
 C                    -4.50975   3.2332    9.42689 
 H                    -3.96787   4.08905   9.8522 
 H                    -4.98214   2.66418   10.2334 
 H                    -5.28287   3.59757   8.73606 
 O                    -3.01998   4.01533   7.33849 
 C                    -2.89735   2.85138   7.69823 
 C                    -1.97133   1.81127   7.06116 
 H                    -2.56464   0.92112   6.80795 
 H                    -1.25213   1.47379   7.82179 
 C                    -1.22854   2.34083   5.81372 
 H                    -1.96459   2.70571   5.08676 
 H                    -0.62482   3.21244   6.09707 
 C                    -0.32248   1.26993   5.15774 
 H                     0.33938   0.84208   5.92094 
 H                    -0.93732   0.43028   4.80381 
 C                     0.50907   1.80583   3.9489 
 C                    -0.36134   2.0809    2.70984 
 C                    -0.68361   1.03247   1.82633 
 H                    -0.28919   0.03179   2.00618 
 C                    -1.49751   1.26187   0.71332 
 H                    -1.7299    0.44051   0.03583 
 C                    -2.01086   2.54028   0.46855 
 H                    -2.64353   2.71893  -0.40024 
 C                    -1.70997   3.58599   1.34723 
 H                    -2.11066   4.58305   1.16748 
 C                    -0.89506   3.35979   2.4608 
 H                    -0.67284   4.18528   3.1375 
 C                     4.94582   0.99955   0.74567 
 C                     4.62661   3.46079   0.6519 
 C                     8.28075   4.60206   3.27527 
 C                     5.18093  -0.6255    5.6978 
 C                     6.34169   5.06063   6.27395 
 C                     4.07385   2.114     0.71063 
 C                     6.33987   1.47929   7.26475 
 C                     8.06749   2.8615    1.51015 
 C                     2.83711   4.83705   4.08709 
 C                     4.3471    0.22804   6.45957 
 C                     1.69804   2.73416   4.21671 
 C                     2.90121   4.3846    5.46839 
 C                     4.0476    2.44508   7.20145 
 C                     6.89789   2.82642   7.21302 
 C                     2.68914   3.53471   2.00075 
 C                     8.38681   3.86711   5.51529 
 C                     1.90295   1.21114   3.70816 
 C                     2.67927   0.31208   4.63008 
 C                     7.49771   5.02155   5.46172 
 C                     8.16108   0.09606   3.81381 
 C                     9.05105   2.27934   3.71985 
 C                     8.64444   1.90039   2.3713 
 C                     6.92261   2.50526   0.68257 
 C                     3.56115  -0.51304   3.82984 
 C                     2.20744   3.80443   3.29216 
 C                     6.0254    3.655     0.63451 
 C                     4.93972   1.29444   7.2556 
 C                     3.77535   4.331     1.45223 
 C                     4.00655   4.7393    6.27607 
 C                     5.97368  -1.04518   3.5178 
 C                     7.88268   4.23455   1.96962 
 C                     2.30776   3.06556   5.55106 
 C                     6.98765   0.20484   1.623 
 C                     4.59079   3.7514    7.16246 
 C                     3.87793   5.63255   3.55443 
 C                     8.27661   1.41423   5.91919 
 C                     7.19691   0.60585   6.47011 
 C                     5.02083   5.99376   4.38554 
 C                     4.78024  -1.00076   4.35547 
 C                     3.08473   0.70559   5.91723 
 C                     7.11672  -0.69087   4.34986 
 C                     2.57524   1.05543   2.37163 
 C                     5.80096   5.57375   2.19961 
 C                     2.89606   2.09787   6.38327 
 C                     5.08427   5.55376   5.72538 
 C                     5.91044  -0.60511   2.17817 
 C                     7.43216   5.4762    4.07646 
 C                     6.39055   1.19783   0.7361 
 C                     8.87224   3.60842   4.16431 
 C                     4.35629   5.37604   2.20981 
 C                     6.21265   5.95605   3.5466 
 C                     2.87596   2.14305   1.53497 
 C                     3.49611  -0.05945   2.44867 
 C                     8.75051   1.16468   4.6112 
 C                     6.6235    4.72563   1.42514 
 C                     6.03609   3.94478   7.16322 
 C                     6.62591  -0.43117   5.69933 
 C                     8.09171   2.78737   6.37855 
 C                     4.65148  -0.10812   1.63418 
 C                     8.09567   0.55115   2.42896 
 

 GradGradGradGradGradGradGradGradGradGradGradGradGradGradGradGradGradGrad
 Berny optimization.
 Initialization pass.
                           ----------------------------
                           !    Initial Parameters    !
                           ! (Angstroms and Degrees)  !
 --------------------------                            --------------------------
 ! Name  Definition              Value          Derivative Info.                !
 --------------------------------------------------------------------------------
 ! R1    R(1,2)                  1.4384         estimate D2E/DX2                !
 ! R2    R(1,7)                  1.3685         estimate D2E/DX2                !
 ! R3    R(2,3)                  1.0986         estimate D2E/DX2                !
 ! R4    R(2,4)                  1.0943         estimate D2E/DX2                !
 ! R5    R(2,5)                  1.099          estimate D2E/DX2                !
 ! R6    R(6,7)                  1.2244         estimate D2E/DX2                !
 ! R7    R(7,8)                  1.5314         estimate D2E/DX2                !
 ! R8    R(8,9)                  1.0993         estimate D2E/DX2                !
 ! R9    R(8,10)                 1.0999         estimate D2E/DX2                !
 ! R10   R(8,11)                 1.5454         estimate D2E/DX2                !
 ! R11   R(11,12)                1.097          estimate D2E/DX2                !
 ! R12   R(11,13)                1.0975         estimate D2E/DX2                !
 ! R13   R(11,14)                1.5486         estimate D2E/DX2                !
 ! R14   R(14,15)                1.0971         estimate D2E/DX2                !
 ! R15   R(14,16)                1.0992         estimate D2E/DX2                !
 ! R16   R(14,17)                1.562          estimate D2E/DX2                !
 ! R17   R(17,18)                1.539          estimate D2E/DX2                !
 ! R18   R(17,39)                1.532          estimate D2E/DX2                !
 ! R19   R(17,45)                1.5344         estimate D2E/DX2                !
 ! R20   R(18,19)                1.4084         estimate D2E/DX2                !
 ! R21   R(18,27)                1.408          estimate D2E/DX2                !
 ! R22   R(19,20)                1.0905         estimate D2E/DX2                !
 ! R23   R(19,21)                1.3978         estimate D2E/DX2                !
 ! R24   R(21,22)                1.0898         estimate D2E/DX2                !
 ! R25   R(21,23)                1.3992         estimate D2E/DX2                !
 ! R26   R(23,24)                1.0895         estimate D2E/DX2                !
 ! R27   R(23,25)                1.3986         estimate D2E/DX2                !
 ! R28   R(25,26)                1.0895         estimate D2E/DX2                !
 ! R29   R(25,27)                1.3983         estimate D2E/DX2                !
 ! R30   R(27,28)                1.0903         estimate D2E/DX2                !
 ! R31   R(29,34)                1.4155         estimate D2E/DX2                !
 ! R32   R(29,76)                1.4583         estimate D2E/DX2                !
 ! R33   R(29,87)                1.4502         estimate D2E/DX2                !
 ! R34   R(30,34)                1.457          estimate D2E/DX2                !
 ! R35   R(30,54)                1.4123         estimate D2E/DX2                !
 ! R36   R(30,56)                1.4569         estimate D2E/DX2                !
 ! R37   R(31,59)                1.4136         estimate D2E/DX2                !
 ! R38   R(31,75)                1.4581         estimate D2E/DX2                !
 ! R39   R(31,77)                1.4586         estimate D2E/DX2                !
 ! R40   R(32,38)                1.4157         estimate D2E/DX2                !
 ! R41   R(32,67)                1.4502         estimate D2E/DX2                !
 ! R42   R(32,85)                1.458          estimate D2E/DX2                !
 ! R43   R(33,47)                1.4134         estimate D2E/DX2                !
 ! R44   R(33,73)                1.4578         estimate D2E/DX2                !
 ! R45   R(33,84)                1.4592         estimate D2E/DX2                !
 ! R46   R(34,80)                1.4544         estimate D2E/DX2                !
 ! R47   R(35,42)                1.459          estimate D2E/DX2                !
 ! R48   R(35,55)                1.4123         estimate D2E/DX2                !
 ! R49   R(35,65)                1.4591         estimate D2E/DX2                !
 ! R50   R(36,50)                1.4136         estimate D2E/DX2                !
 ! R51   R(36,51)                1.4569         estimate D2E/DX2                !
 ! R52   R(36,59)                1.4596         estimate D2E/DX2                !
 ! R53   R(37,40)                1.4549         estimate D2E/DX2                !
 ! R54   R(37,53)                1.4473         estimate D2E/DX2                !
 ! R55   R(37,63)                1.4142         estimate D2E/DX2                !
 ! R56   R(38,55)                1.4567         estimate D2E/DX2                !
 ! R57   R(38,68)                1.4546         estimate D2E/DX2                !
 ! R58   R(39,45)                1.6187         estimate D2E/DX2                !
 ! R59   R(39,53)                1.5032         estimate D2E/DX2                !
 ! R60   R(39,60)                1.504          estimate D2E/DX2                !
 ! R61   R(40,57)                1.4142         estimate D2E/DX2                !
 ! R62   R(40,60)                1.4488         estimate D2E/DX2                !
 ! R63   R(41,55)                1.457          estimate D2E/DX2                !
 ! R64   R(41,62)                1.4153         estimate D2E/DX2                !
 ! R65   R(41,72)                1.4547         estimate D2E/DX2                !
 ! R66   R(42,84)                1.4128         estimate D2E/DX2                !
 ! R67   R(42,86)                1.4571         estimate D2E/DX2                !
 ! R68   R(43,53)                1.4045         estimate D2E/DX2                !
 ! R69   R(43,56)                1.4542         estimate D2E/DX2                !
 ! R70   R(43,80)                1.4794         estimate D2E/DX2                !
 ! R71   R(44,47)                1.4581         estimate D2E/DX2                !
 ! R72   R(44,77)                1.4587         estimate D2E/DX2                !
 ! R73   R(44,86)                1.4136         estimate D2E/DX2                !
 ! R74   R(45,46)                1.5036         estimate D2E/DX2                !
 ! R75   R(45,70)                1.5042         estimate D2E/DX2                !
 ! R76   R(46,52)                1.4488         estimate D2E/DX2                !
 ! R77   R(46,68)                1.4057         estimate D2E/DX2                !
 ! R78   R(47,75)                1.4594         estimate D2E/DX2                !
 ! R79   R(48,69)                1.4133         estimate D2E/DX2                !
 ! R80   R(48,82)                1.4578         estimate D2E/DX2                !
 ! R81   R(48,88)                1.4592         estimate D2E/DX2                !
 ! R82   R(49,50)                1.4586         estimate D2E/DX2                !
 ! R83   R(49,77)                1.4128         estimate D2E/DX2                !
 ! R84   R(49,82)                1.4585         estimate D2E/DX2                !
 ! R85   R(50,88)                1.4577         estimate D2E/DX2                !
 ! R86   R(51,54)                1.4592         estimate D2E/DX2                !
 ! R87   R(51,76)                1.4126         estimate D2E/DX2                !
 ! R88   R(52,67)                1.4143         estimate D2E/DX2                !
 ! R89   R(52,81)                1.4552         estimate D2E/DX2                !
 ! R90   R(54,83)                1.4591         estimate D2E/DX2                !
 ! R91   R(56,78)                1.4155         estimate D2E/DX2                !
 ! R92   R(57,62)                1.4502         estimate D2E/DX2                !
 ! R93   R(57,73)                1.4588         estimate D2E/DX2                !
 ! R94   R(58,67)                1.4588         estimate D2E/DX2                !
 ! R95   R(58,69)                1.4575         estimate D2E/DX2                !
 ! R96   R(58,74)                1.4115         estimate D2E/DX2                !
 ! R97   R(59,83)                1.4571         estimate D2E/DX2                !
 ! R98   R(60,72)                1.4054         estimate D2E/DX2                !
 ! R99   R(61,74)                1.4576         estimate D2E/DX2                !
 ! R100  R(61,76)                1.4592         estimate D2E/DX2                !
 ! R101  R(61,88)                1.4132         estimate D2E/DX2                !
 ! R102  R(62,84)                1.4582         estimate D2E/DX2                !
 ! R103  R(63,66)                1.4586         estimate D2E/DX2                !
 ! R104  R(63,78)                1.45           estimate D2E/DX2                !
 ! R105  R(64,65)                1.457          estimate D2E/DX2                !
 ! R106  R(64,82)                1.4134         estimate D2E/DX2                !
 ! R107  R(64,86)                1.4597         estimate D2E/DX2                !
 ! R108  R(65,85)                1.4126         estimate D2E/DX2                !
 ! R109  R(66,73)                1.4117         estimate D2E/DX2                !
 ! R110  R(66,79)                1.458          estimate D2E/DX2                !
 ! R111  R(68,72)                1.4803         estimate D2E/DX2                !
 ! R112  R(69,85)                1.4592         estimate D2E/DX2                !
 ! R113  R(70,80)                1.4048         estimate D2E/DX2                !
 ! R114  R(70,81)                1.4481         estimate D2E/DX2                !
 ! R115  R(71,78)                1.4582         estimate D2E/DX2                !
 ! R116  R(71,79)                1.4595         estimate D2E/DX2                !
 ! R117  R(71,83)                1.4127         estimate D2E/DX2                !
 ! R118  R(74,87)                1.4587         estimate D2E/DX2                !
 ! R119  R(75,79)                1.4136         estimate D2E/DX2                !
 ! R120  R(81,87)                1.4144         estimate D2E/DX2                !
 ! A1    A(2,1,7)              117.0761         estimate D2E/DX2                !
 ! A2    A(1,2,3)              110.7524         estimate D2E/DX2                !
 ! A3    A(1,2,4)              107.1297         estimate D2E/DX2                !
 ! A4    A(1,2,5)              110.7003         estimate D2E/DX2                !
 ! A5    A(3,2,4)              109.4322         estimate D2E/DX2                !
 ! A6    A(3,2,5)              109.3934         estimate D2E/DX2                !
 ! A7    A(4,2,5)              109.392          estimate D2E/DX2                !
 ! A8    A(1,7,6)              121.9384         estimate D2E/DX2                !
 ! A9    A(1,7,8)              112.3309         estimate D2E/DX2                !
 ! A10   A(6,7,8)              125.7307         estimate D2E/DX2                !
 ! A11   A(7,8,9)              108.628          estimate D2E/DX2                !
 ! A12   A(7,8,10)             108.4278         estimate D2E/DX2                !
 ! A13   A(7,8,11)             113.1849         estimate D2E/DX2                !
 ! A14   A(9,8,10)             105.2927         estimate D2E/DX2                !
 ! A15   A(9,8,11)             110.5455         estimate D2E/DX2                !
 ! A16   A(10,8,11)            110.431          estimate D2E/DX2                !
 ! A17   A(8,11,12)            109.0501         estimate D2E/DX2                !
 ! A18   A(8,11,13)            109.156          estimate D2E/DX2                !
 ! A19   A(8,11,14)            112.7172         estimate D2E/DX2                !
 ! A20   A(12,11,13)           106.0235         estimate D2E/DX2                !
 ! A21   A(12,11,14)           109.9918         estimate D2E/DX2                !
 ! A22   A(13,11,14)           109.6773         estimate D2E/DX2                !
 ! A23   A(11,14,15)           109.1469         estimate D2E/DX2                !
 ! A24   A(11,14,16)           109.7164         estimate D2E/DX2                !
 ! A25   A(11,14,17)           113.7059         estimate D2E/DX2                !
 ! A26   A(15,14,16)           105.2798         estimate D2E/DX2                !
 ! A27   A(15,14,17)           110.5487         estimate D2E/DX2                !
 ! A28   A(16,14,17)           108.0981         estimate D2E/DX2                !
 ! A29   A(14,17,18)           112.5382         estimate D2E/DX2                !
 ! A30   A(14,17,39)           119.0612         estimate D2E/DX2                !
 ! A31   A(14,17,45)           118.1665         estimate D2E/DX2                !
 ! A32   A(18,17,39)           118.1221         estimate D2E/DX2                !
 ! A33   A(18,17,45)           117.1753         estimate D2E/DX2                !
 ! A34   A(17,18,19)           120.093          estimate D2E/DX2                !
 ! A35   A(17,18,27)           121.2741         estimate D2E/DX2                !
 ! A36   A(19,18,27)           118.5847         estimate D2E/DX2                !
 ! A37   A(18,19,20)           119.7922         estimate D2E/DX2                !
 ! A38   A(18,19,21)           120.7011         estimate D2E/DX2                !
 ! A39   A(20,19,21)           119.5051         estimate D2E/DX2                !
 ! A40   A(19,21,22)           119.702          estimate D2E/DX2                !
 ! A41   A(19,21,23)           120.19           estimate D2E/DX2                !
 ! A42   A(22,21,23)           120.108          estimate D2E/DX2                !
 ! A43   A(21,23,24)           120.157          estimate D2E/DX2                !
 ! A44   A(21,23,25)           119.6233         estimate D2E/DX2                !
 ! A45   A(24,23,25)           120.2195         estimate D2E/DX2                !
 ! A46   A(23,25,26)           120.0974         estimate D2E/DX2                !
 ! A47   A(23,25,27)           120.3144         estimate D2E/DX2                !
 ! A48   A(26,25,27)           119.5883         estimate D2E/DX2                !
 ! A49   A(18,27,25)           120.5774         estimate D2E/DX2                !
 ! A50   A(18,27,28)           120.044          estimate D2E/DX2                !
 ! A51   A(25,27,28)           119.3784         estimate D2E/DX2                !
 ! A52   A(34,29,76)           120.2042         estimate D2E/DX2                !
 ! A53   A(34,29,87)           119.4399         estimate D2E/DX2                !
 ! A54   A(76,29,87)           107.9959         estimate D2E/DX2                !
 ! A55   A(34,30,54)           120.2224         estimate D2E/DX2                !
 ! A56   A(34,30,56)           107.9578         estimate D2E/DX2                !
 ! A57   A(54,30,56)           120.2214         estimate D2E/DX2                !
 ! A58   A(59,31,75)           119.9657         estimate D2E/DX2                !
 ! A59   A(59,31,77)           120.0035         estimate D2E/DX2                !
 ! A60   A(75,31,77)           108.028          estimate D2E/DX2                !
 ! A61   A(38,32,67)           119.4283         estimate D2E/DX2                !
 ! A62   A(38,32,85)           120.1868         estimate D2E/DX2                !
 ! A63   A(67,32,85)           108.0162         estimate D2E/DX2                !
 ! A64   A(47,33,73)           119.9067         estimate D2E/DX2                !
 ! A65   A(47,33,84)           120.0242         estimate D2E/DX2                !
 ! A66   A(73,33,84)           107.8997         estimate D2E/DX2                !
 ! A67   A(29,34,30)           119.6742         estimate D2E/DX2                !
 ! A68   A(29,34,80)           120.602          estimate D2E/DX2                !
 ! A69   A(30,34,80)           108.4727         estimate D2E/DX2                !
 ! A70   A(42,35,55)           119.9848         estimate D2E/DX2                !
 ! A71   A(42,35,65)           107.984          estimate D2E/DX2                !
 ! A72   A(55,35,65)           120.0295         estimate D2E/DX2                !
 ! A73   A(50,36,51)           120.0357         estimate D2E/DX2                !
 ! A74   A(50,36,59)           119.9666         estimate D2E/DX2                !
 ! A75   A(51,36,59)           108.0188         estimate D2E/DX2                !
 ! A76   A(40,37,53)           108.587          estimate D2E/DX2                !
 ! A77   A(40,37,63)           120.0071         estimate D2E/DX2                !
 ! A78   A(53,37,63)           120.9756         estimate D2E/DX2                !
 ! A79   A(32,38,55)           119.7226         estimate D2E/DX2                !
 ! A80   A(32,38,68)           120.5634         estimate D2E/DX2                !
 ! A81   A(55,38,68)           108.4493         estimate D2E/DX2                !
 ! A82   A(17,39,53)           125.9361         estimate D2E/DX2                !
 ! A83   A(17,39,60)           127.1003         estimate D2E/DX2                !
 ! A84   A(45,39,53)           115.7066         estimate D2E/DX2                !
 ! A85   A(45,39,60)           115.7681         estimate D2E/DX2                !
 ! A86   A(53,39,60)           104.5604         estimate D2E/DX2                !
 ! A87   A(37,40,57)           119.9115         estimate D2E/DX2                !
 ! A88   A(37,40,60)           108.6184         estimate D2E/DX2                !
 ! A89   A(57,40,60)           121.0601         estimate D2E/DX2                !
 ! A90   A(55,41,62)           119.6669         estimate D2E/DX2                !
 ! A91   A(55,41,72)           108.4888         estimate D2E/DX2                !
 ! A92   A(62,41,72)           120.5734         estimate D2E/DX2                !
 ! A93   A(35,42,84)           119.9231         estimate D2E/DX2                !
 ! A94   A(35,42,86)           107.9939         estimate D2E/DX2                !
 ! A95   A(84,42,86)           120.0545         estimate D2E/DX2                !
 ! A96   A(53,43,56)           119.8577         estimate D2E/DX2                !
 ! A97   A(53,43,80)           120.8954         estimate D2E/DX2                !
 ! A98   A(56,43,80)           107.5788         estimate D2E/DX2                !
 ! A99   A(47,44,77)           108.0175         estimate D2E/DX2                !
 ! A100  A(47,44,86)           119.9937         estimate D2E/DX2                !
 ! A101  A(77,44,86)           119.9752         estimate D2E/DX2                !
 ! A102  A(17,45,46)           127.1956         estimate D2E/DX2                !
 ! A103  A(17,45,70)           125.8406         estimate D2E/DX2                !
 ! A104  A(39,45,46)           115.805          estimate D2E/DX2                !
 ! A105  A(39,45,70)           115.6667         estimate D2E/DX2                !
 ! A106  A(46,45,70)           104.6042         estimate D2E/DX2                !
 ! A107  A(45,46,52)           108.43           estimate D2E/DX2                !
 ! A108  A(45,46,68)           122.8854         estimate D2E/DX2                !
 ! A109  A(52,46,68)           119.3164         estimate D2E/DX2                !
 ! A110  A(33,47,44)           119.9676         estimate D2E/DX2                !
 ! A111  A(33,47,75)           120.0077         estimate D2E/DX2                !
 ! A112  A(44,47,75)           107.9932         estimate D2E/DX2                !
 ! A113  A(69,48,82)           119.9657         estimate D2E/DX2                !
 ! A114  A(69,48,88)           120.0343         estimate D2E/DX2                !
 ! A115  A(82,48,88)           107.9761         estimate D2E/DX2                !
 ! A116  A(50,49,77)           119.9993         estimate D2E/DX2                !
 ! A117  A(50,49,82)           108.0006         estimate D2E/DX2                !
 ! A118  A(77,49,82)           120.0408         estimate D2E/DX2                !
 ! A119  A(36,50,49)           120.0246         estimate D2E/DX2                !
 ! A120  A(36,50,88)           119.9846         estimate D2E/DX2                !
 ! A121  A(49,50,88)           107.9896         estimate D2E/DX2                !
 ! A122  A(36,51,54)           108.013          estimate D2E/DX2                !
 ! A123  A(36,51,76)           120.0521         estimate D2E/DX2                !
 ! A124  A(54,51,76)           119.9301         estimate D2E/DX2                !
 ! A125  A(46,52,67)           121.0508         estimate D2E/DX2                !
 ! A126  A(46,52,81)           108.6344         estimate D2E/DX2                !
 ! A127  A(67,52,81)           119.9174         estimate D2E/DX2                !
 ! A128  A(37,53,39)           108.5176         estimate D2E/DX2                !
 ! A129  A(37,53,43)           119.5272         estimate D2E/DX2                !
 ! A130  A(39,53,43)           123.026          estimate D2E/DX2                !
 ! A131  A(30,54,51)           120.0152         estimate D2E/DX2                !
 ! A132  A(30,54,83)           120.0133         estimate D2E/DX2                !
 ! A133  A(51,54,83)           107.9544         estimate D2E/DX2                !
 ! A134  A(35,55,38)           120.1761         estimate D2E/DX2                !
 ! A135  A(35,55,41)           120.2587         estimate D2E/DX2                !
 ! A136  A(38,55,41)           107.9825         estimate D2E/DX2                !
 ! A137  A(30,56,43)           108.456          estimate D2E/DX2                !
 ! A138  A(30,56,78)           119.6837         estimate D2E/DX2                !
 ! A139  A(43,56,78)           120.5939         estimate D2E/DX2                !
 ! A140  A(40,57,62)           119.5459         estimate D2E/DX2                !
 ! A141  A(40,57,73)           120.1234         estimate D2E/DX2                !
 ! A142  A(62,57,73)           108.2668         estimate D2E/DX2                !
 ! A143  A(67,58,69)           107.8412         estimate D2E/DX2                !
 ! A144  A(67,58,74)           119.9244         estimate D2E/DX2                !
 ! A145  A(69,58,74)           120.0764         estimate D2E/DX2                !
 ! A146  A(31,59,36)           119.9771         estimate D2E/DX2                !
 ! A147  A(31,59,83)           120.0575         estimate D2E/DX2                !
 ! A148  A(36,59,83)           107.9882         estimate D2E/DX2                !
 ! A149  A(39,60,40)           108.4242         estimate D2E/DX2                !
 ! A150  A(39,60,72)           122.9112         estimate D2E/DX2                !
 ! A151  A(40,60,72)           119.2899         estimate D2E/DX2                !
 ! A152  A(74,61,76)           107.8925         estimate D2E/DX2                !
 ! A153  A(74,61,88)           119.8926         estimate D2E/DX2                !
 ! A154  A(76,61,88)           120.0469         estimate D2E/DX2                !
 ! A155  A(41,62,57)           119.4061         estimate D2E/DX2                !
 ! A156  A(41,62,84)           120.1856         estimate D2E/DX2                !
 ! A157  A(57,62,84)           108.0168         estimate D2E/DX2                !
 ! A158  A(37,63,66)           120.092          estimate D2E/DX2                !
 ! A159  A(37,63,78)           119.5095         estimate D2E/DX2                !
 ! A160  A(66,63,78)           108.282          estimate D2E/DX2                !
 ! A161  A(65,64,82)           120.029          estimate D2E/DX2                !
 ! A162  A(65,64,86)           108.0033         estimate D2E/DX2                !
 ! A163  A(82,64,86)           119.986          estimate D2E/DX2                !
 ! A164  A(35,65,64)           108.0043         estimate D2E/DX2                !
 ! A165  A(35,65,85)           119.9464         estimate D2E/DX2                !
 ! A166  A(64,65,85)           120.0351         estimate D2E/DX2                !
 ! A167  A(63,66,73)           119.9235         estimate D2E/DX2                !
 ! A168  A(63,66,79)           107.8334         estimate D2E/DX2                !
 ! A169  A(73,66,79)           120.0888         estimate D2E/DX2                !
 ! A170  A(32,67,52)           119.532          estimate D2E/DX2                !
 ! A171  A(32,67,58)           108.2609         estimate D2E/DX2                !
 ! A172  A(52,67,58)           120.1505         estimate D2E/DX2                !
 ! A173  A(38,68,46)           119.9888         estimate D2E/DX2                !
 ! A174  A(38,68,72)           107.579          estimate D2E/DX2                !
 ! A175  A(46,68,72)           120.9847         estimate D2E/DX2                !
 ! A176  A(48,69,58)           119.891          estimate D2E/DX2                !
 ! A177  A(48,69,85)           120.0147         estimate D2E/DX2                !
 ! A178  A(58,69,85)           107.9035         estimate D2E/DX2                !
 ! A179  A(45,70,80)           123.007          estimate D2E/DX2                !
 ! A180  A(45,70,81)           108.4609         estimate D2E/DX2                !
 ! A181  A(80,70,81)           119.4488         estimate D2E/DX2                !
 ! A182  A(78,71,79)           107.9708         estimate D2E/DX2                !
 ! A183  A(78,71,83)           119.9533         estimate D2E/DX2                !
 ! A184  A(79,71,83)           119.9335         estimate D2E/DX2                !
 ! A185  A(41,72,60)           120.006          estimate D2E/DX2                !
 ! A186  A(41,72,68)           107.4985         estimate D2E/DX2                !
 ! A187  A(60,72,68)           120.9674         estimate D2E/DX2                !
 ! A188  A(33,73,57)           107.8372         estimate D2E/DX2                !
 ! A189  A(33,73,66)           120.0892         estimate D2E/DX2                !
 ! A190  A(57,73,66)           119.941          estimate D2E/DX2                !
 ! A191  A(58,74,61)           120.1077         estimate D2E/DX2                !
 ! A192  A(58,74,87)           119.9225         estimate D2E/DX2                !
 ! A193  A(61,74,87)           107.8463         estimate D2E/DX2                !
 ! A194  A(31,75,47)           107.9774         estimate D2E/DX2                !
 ! A195  A(31,75,79)           119.9747         estimate D2E/DX2                !
 ! A196  A(47,75,79)           120.0187         estimate D2E/DX2                !
 ! A197  A(29,76,51)           119.9505         estimate D2E/DX2                !
 ! A198  A(29,76,61)           107.9922         estimate D2E/DX2                !
 ! A199  A(51,76,61)           119.919          estimate D2E/DX2                !
 ! A200  A(31,77,44)           107.9838         estimate D2E/DX2                !
 ! A201  A(31,77,49)           120.0285         estimate D2E/DX2                !
 ! A202  A(44,77,49)           120.0219         estimate D2E/DX2                !
 ! A203  A(56,78,63)           119.4401         estimate D2E/DX2                !
 ! A204  A(56,78,71)           120.1977         estimate D2E/DX2                !
 ! A205  A(63,78,71)           108.0195         estimate D2E/DX2                !
 ! A206  A(66,79,71)           107.8941         estimate D2E/DX2                !
 ! A207  A(66,79,75)           119.8887         estimate D2E/DX2                !
 ! A208  A(71,79,75)           120.0256         estimate D2E/DX2                !
 ! A209  A(34,80,43)           107.5327         estimate D2E/DX2                !
 ! A210  A(34,80,70)           119.8956         estimate D2E/DX2                !
 ! A211  A(43,80,70)           120.9157         estimate D2E/DX2                !
 ! A212  A(52,81,70)           108.5965         estimate D2E/DX2                !
 ! A213  A(52,81,87)           119.9545         estimate D2E/DX2                !
 ! A214  A(70,81,87)           121.018          estimate D2E/DX2                !
 ! A215  A(48,82,49)           108.014          estimate D2E/DX2                !
 ! A216  A(48,82,64)           120.0028         estimate D2E/DX2                !
 ! A217  A(49,82,64)           119.9808         estimate D2E/DX2                !
 ! A218  A(54,83,59)           108.0235         estimate D2E/DX2                !
 ! A219  A(54,83,71)           119.9273         estimate D2E/DX2                !
 ! A220  A(59,83,71)           120.0425         estimate D2E/DX2                !
 ! A221  A(33,84,42)           119.9383         estimate D2E/DX2                !
 ! A222  A(33,84,62)           107.9792         estimate D2E/DX2                !
 ! A223  A(42,84,62)           119.9774         estimate D2E/DX2                !
 ! A224  A(32,85,65)           119.9353         estimate D2E/DX2                !
 ! A225  A(32,85,69)           107.978          estimate D2E/DX2                !
 ! A226  A(65,85,69)           119.9522         estimate D2E/DX2                !
 ! A227  A(42,86,44)           120.0214         estimate D2E/DX2                !
 ! A228  A(42,86,64)           108.0123         estimate D2E/DX2                !
 ! A229  A(44,86,64)           119.9949         estimate D2E/DX2                !
 ! A230  A(29,87,74)           108.2729         estimate D2E/DX2                !
 ! A231  A(29,87,81)           119.4934         estimate D2E/DX2                !
 ! A232  A(74,87,81)           120.1293         estimate D2E/DX2                !
 ! A233  A(48,88,50)           108.0195         estimate D2E/DX2                !
 ! A234  A(48,88,61)           119.9978         estimate D2E/DX2                !
 ! A235  A(50,88,61)           119.9612         estimate D2E/DX2                !
 ! D1    D(7,1,2,3)            -60.6204         estimate D2E/DX2                !
 ! D2    D(7,1,2,4)           -179.9            estimate D2E/DX2                !
 ! D3    D(7,1,2,5)             60.8985         estimate D2E/DX2                !
 ! D4    D(2,1,7,6)              0.1394         estimate D2E/DX2                !
 ! D5    D(2,1,7,8)           -179.9374         estimate D2E/DX2                !
 ! D6    D(1,7,8,9)             53.2174         estimate D2E/DX2                !
 ! D7    D(1,7,8,10)           -60.717          estimate D2E/DX2                !
 ! D8    D(1,7,8,11)           176.3965         estimate D2E/DX2                !
 ! D9    D(6,7,8,9)           -126.8629         estimate D2E/DX2                !
 ! D10   D(6,7,8,10)           119.2027         estimate D2E/DX2                !
 ! D11   D(6,7,8,11)            -3.6837         estimate D2E/DX2                !
 ! D12   D(7,8,11,12)          -56.1127         estimate D2E/DX2                !
 ! D13   D(7,8,11,13)           59.2973         estimate D2E/DX2                !
 ! D14   D(7,8,11,14)         -178.5707         estimate D2E/DX2                !
 ! D15   D(9,8,11,12)           66.0014         estimate D2E/DX2                !
 ! D16   D(9,8,11,13)         -178.5885         estimate D2E/DX2                !
 ! D17   D(9,8,11,14)          -56.4566         estimate D2E/DX2                !
 ! D18   D(10,8,11,12)        -177.8827         estimate D2E/DX2                !
 ! D19   D(10,8,11,13)         -62.4726         estimate D2E/DX2                !
 ! D20   D(10,8,11,14)          59.6594         estimate D2E/DX2                !
 ! D21   D(8,11,14,15)         -52.384          estimate D2E/DX2                !
 ! D22   D(8,11,14,16)          62.4989         estimate D2E/DX2                !
 ! D23   D(8,11,14,17)        -176.3189         estimate D2E/DX2                !
 ! D24   D(12,11,14,15)       -174.3117         estimate D2E/DX2                !
 ! D25   D(12,11,14,16)        -59.4288         estimate D2E/DX2                !
 ! D26   D(12,11,14,17)         61.7534         estimate D2E/DX2                !
 ! D27   D(13,11,14,15)         69.4537         estimate D2E/DX2                !
 ! D28   D(13,11,14,16)       -175.6633         estimate D2E/DX2                !
 ! D29   D(13,11,14,17)        -54.4812         estimate D2E/DX2                !
 ! D30   D(11,14,17,18)        -71.5553         estimate D2E/DX2                !
 ! D31   D(11,14,17,39)         72.9776         estimate D2E/DX2                !
 ! D32   D(11,14,17,45)        146.8986         estimate D2E/DX2                !
 ! D33   D(15,14,17,18)        165.2728         estimate D2E/DX2                !
 ! D34   D(15,14,17,39)        -50.1943         estimate D2E/DX2                !
 ! D35   D(15,14,17,45)         23.7267         estimate D2E/DX2                !
 ! D36   D(16,14,17,18)         50.5268         estimate D2E/DX2                !
 ! D37   D(16,14,17,39)       -164.9404         estimate D2E/DX2                !
 ! D38   D(16,14,17,45)        -91.0193         estimate D2E/DX2                !
 ! D39   D(14,17,18,19)        -83.972          estimate D2E/DX2                !
 ! D40   D(14,17,18,27)         93.4661         estimate D2E/DX2                !
 ! D41   D(39,17,18,19)        131.1329         estimate D2E/DX2                !
 ! D42   D(39,17,18,27)        -51.429          estimate D2E/DX2                !
 ! D43   D(45,17,18,19)         57.9839         estimate D2E/DX2                !
 ! D44   D(45,17,18,27)       -124.5781         estimate D2E/DX2                !
 ! D45   D(14,17,39,53)       -150.429          estimate D2E/DX2                !
 ! D46   D(14,17,39,60)          9.2063         estimate D2E/DX2                !
 ! D47   D(18,17,39,53)         -7.8493         estimate D2E/DX2                !
 ! D48   D(18,17,39,60)        151.786          estimate D2E/DX2                !
 ! D49   D(14,17,45,46)        -10.6535         estimate D2E/DX2                !
 ! D50   D(14,17,45,70)        149.1697         estimate D2E/DX2                !
 ! D51   D(18,17,45,46)       -150.4384         estimate D2E/DX2                !
 ! D52   D(18,17,45,70)          9.3849         estimate D2E/DX2                !
 ! D53   D(17,18,19,20)         -1.879          estimate D2E/DX2                !
 ! D54   D(17,18,19,21)        178.5777         estimate D2E/DX2                !
 ! D55   D(27,18,19,20)       -179.3854         estimate D2E/DX2                !
 ! D56   D(27,18,19,21)          1.0712         estimate D2E/DX2                !
 ! D57   D(17,18,27,25)       -178.4877         estimate D2E/DX2                !
 ! D58   D(17,18,27,28)          1.6375         estimate D2E/DX2                !
 ! D59   D(19,18,27,25)         -1.0119         estimate D2E/DX2                !
 ! D60   D(19,18,27,28)        179.1133         estimate D2E/DX2                !
 ! D61   D(18,19,21,22)        179.5029         estimate D2E/DX2                !
 ! D62   D(18,19,21,23)         -0.43           estimate D2E/DX2                !
 ! D63   D(20,19,21,22)         -0.0418         estimate D2E/DX2                !
 ! D64   D(20,19,21,23)       -179.9746         estimate D2E/DX2                !
 ! D65   D(19,21,23,24)        179.8753         estimate D2E/DX2                !
 ! D66   D(19,21,23,25)         -0.29           estimate D2E/DX2                !
 ! D67   D(22,21,23,24)         -0.0572         estimate D2E/DX2                !
 ! D68   D(22,21,23,25)        179.7774         estimate D2E/DX2                !
 ! D69   D(21,23,25,26)       -179.6171         estimate D2E/DX2                !
 ! D70   D(21,23,25,27)          0.3482         estimate D2E/DX2                !
 ! D71   D(24,23,25,26)          0.2174         estimate D2E/DX2                !
 ! D72   D(24,23,25,27)       -179.8172         estimate D2E/DX2                !
 ! D73   D(23,25,27,18)          0.3128         estimate D2E/DX2                !
 ! D74   D(23,25,27,28)       -179.8115         estimate D2E/DX2                !
 ! D75   D(26,25,27,18)       -179.7216         estimate D2E/DX2                !
 ! D76   D(26,25,27,28)          0.154          estimate D2E/DX2                !
 ! D77   D(76,29,34,30)          0.5899         estimate D2E/DX2                !
 ! D78   D(76,29,34,80)       -138.9352         estimate D2E/DX2                !
 ! D79   D(87,29,34,30)        138.2385         estimate D2E/DX2                !
 ! D80   D(87,29,34,80)         -1.2867         estimate D2E/DX2                !
 ! D81   D(34,29,76,51)         -0.43           estimate D2E/DX2                !
 ! D82   D(34,29,76,61)        141.9782         estimate D2E/DX2                !
 ! D83   D(87,29,76,51)       -142.3426         estimate D2E/DX2                !
 ! D84   D(87,29,76,61)          0.0657         estimate D2E/DX2                !
 ! D85   D(34,29,87,74)       -142.3819         estimate D2E/DX2                !
 ! D86   D(34,29,87,81)          0.186          estimate D2E/DX2                !
 ! D87   D(76,29,87,74)         -0.1281         estimate D2E/DX2                !
 ! D88   D(76,29,87,81)        142.4398         estimate D2E/DX2                !
 ! D89   D(54,30,34,29)         -0.2126         estimate D2E/DX2                !
 ! D90   D(54,30,34,80)        143.6971         estimate D2E/DX2                !
 ! D91   D(56,30,34,29)       -143.453          estimate D2E/DX2                !
 ! D92   D(56,30,34,80)          0.4567         estimate D2E/DX2                !
 ! D93   D(34,30,54,51)         -0.3255         estimate D2E/DX2                !
 ! D94   D(34,30,54,83)       -138.4714         estimate D2E/DX2                !
 ! D95   D(56,30,54,51)        138.4623         estimate D2E/DX2                !
 ! D96   D(56,30,54,83)          0.3164         estimate D2E/DX2                !
 ! D97   D(34,30,56,43)         -0.435          estimate D2E/DX2                !
 ! D98   D(34,30,56,78)        143.4493         estimate D2E/DX2                !
 ! D99   D(54,30,56,43)       -143.6759         estimate D2E/DX2                !
 ! D100  D(54,30,56,78)          0.2085         estimate D2E/DX2                !
 ! D101  D(75,31,59,36)       -138.382          estimate D2E/DX2                !
 ! D102  D(75,31,59,83)         -0.1624         estimate D2E/DX2                !
 ! D103  D(77,31,59,36)         -0.1855         estimate D2E/DX2                !
 ! D104  D(77,31,59,83)        138.0341         estimate D2E/DX2                !
 ! D105  D(59,31,75,47)        142.5509         estimate D2E/DX2                !
 ! D106  D(59,31,75,79)         -0.0404         estimate D2E/DX2                !
 ! D107  D(77,31,75,47)         -0.0721         estimate D2E/DX2                !
 ! D108  D(77,31,75,79)       -142.6634         estimate D2E/DX2                !
 ! D109  D(59,31,77,44)       -142.4977         estimate D2E/DX2                !
 ! D110  D(59,31,77,49)          0.1773         estimate D2E/DX2                !
 ! D111  D(75,31,77,44)          0.1087         estimate D2E/DX2                !
 ! D112  D(75,31,77,49)        142.7837         estimate D2E/DX2                !
 ! D113  D(67,32,38,55)       -138.2155         estimate D2E/DX2                !
 ! D114  D(67,32,38,68)          1.2797         estimate D2E/DX2                !
 ! D115  D(85,32,38,55)         -0.572          estimate D2E/DX2                !
 ! D116  D(85,32,38,68)        138.9232         estimate D2E/DX2                !
 ! D117  D(38,32,67,52)         -0.2409         estimate D2E/DX2                !
 ! D118  D(38,32,67,58)        142.3965         estimate D2E/DX2                !
 ! D119  D(85,32,67,52)       -142.4775         estimate D2E/DX2                !
 ! D120  D(85,32,67,58)          0.1599         estimate D2E/DX2                !
 ! D121  D(38,32,85,65)          0.4331         estimate D2E/DX2                !
 ! D122  D(38,32,85,69)       -141.9935         estimate D2E/DX2                !
 ! D123  D(67,32,85,65)        142.331          estimate D2E/DX2                !
 ! D124  D(67,32,85,69)         -0.0956         estimate D2E/DX2                !
 ! D125  D(73,33,47,44)       -138.0537         estimate D2E/DX2                !
 ! D126  D(73,33,47,75)          0.0858         estimate D2E/DX2                !
 ! D127  D(84,33,47,44)         -0.1582         estimate D2E/DX2                !
 ! D128  D(84,33,47,75)        137.9813         estimate D2E/DX2                !
 ! D129  D(47,33,73,57)        142.3154         estimate D2E/DX2                !
 ! D130  D(47,33,73,66)         -0.0966         estimate D2E/DX2                !
 ! D131  D(84,33,73,57)         -0.0919         estimate D2E/DX2                !
 ! D132  D(84,33,73,66)       -142.5039         estimate D2E/DX2                !
 ! D133  D(47,33,84,42)          0.0986         estimate D2E/DX2                !
 ! D134  D(47,33,84,62)       -142.3769         estimate D2E/DX2                !
 ! D135  D(73,33,84,42)        142.4538         estimate D2E/DX2                !
 ! D136  D(73,33,84,62)         -0.0217         estimate D2E/DX2                !
 ! D137  D(29,34,80,43)        143.2115         estimate D2E/DX2                !
 ! D138  D(29,34,80,70)         -0.2196         estimate D2E/DX2                !
 ! D139  D(30,34,80,43)         -0.3027         estimate D2E/DX2                !
 ! D140  D(30,34,80,70)       -143.7338         estimate D2E/DX2                !
 ! D141  D(55,35,42,84)          0.44           estimate D2E/DX2                !
 ! D142  D(55,35,42,86)       -142.1695         estimate D2E/DX2                !
 ! D143  D(65,35,42,84)        143.0721         estimate D2E/DX2                !
 ! D144  D(65,35,42,86)          0.4627         estimate D2E/DX2                !
 ! D145  D(42,35,55,38)        138.5108         estimate D2E/DX2                !
 ! D146  D(42,35,55,41)         -0.311          estimate D2E/DX2                !
 ! D147  D(65,35,55,38)          0.3298         estimate D2E/DX2                !
 ! D148  D(65,35,55,41)       -138.4919         estimate D2E/DX2                !
 ! D149  D(42,35,65,64)         -0.4617         estimate D2E/DX2                !
 ! D150  D(42,35,65,85)       -143.0819         estimate D2E/DX2                !
 ! D151  D(55,35,65,64)        142.1507         estimate D2E/DX2                !
 ! D152  D(55,35,65,85)         -0.4694         estimate D2E/DX2                !
 ! D153  D(51,36,50,49)       -138.0344         estimate D2E/DX2                !
 ! D154  D(51,36,50,88)          0.1494         estimate D2E/DX2                !
 ! D155  D(59,36,50,49)          0.1945         estimate D2E/DX2                !
 ! D156  D(59,36,50,88)        138.3782         estimate D2E/DX2                !
 ! D157  D(50,36,51,54)        142.3655         estimate D2E/DX2                !
 ! D158  D(50,36,51,76)         -0.2211         estimate D2E/DX2                !
 ! D159  D(59,36,51,54)         -0.2712         estimate D2E/DX2                !
 ! D160  D(59,36,51,76)       -142.8578         estimate D2E/DX2                !
 ! D161  D(50,36,59,31)         -0.0005         estimate D2E/DX2                !
 ! D162  D(50,36,59,83)       -142.6769         estimate D2E/DX2                !
 ! D163  D(51,36,59,31)        142.6667         estimate D2E/DX2                !
 ! D164  D(51,36,59,83)         -0.0097         estimate D2E/DX2                !
 ! D165  D(53,37,40,57)        145.0898         estimate D2E/DX2                !
 ! D166  D(53,37,40,60)         -0.1861         estimate D2E/DX2                !
 ! D167  D(63,37,40,57)         -0.1204         estimate D2E/DX2                !
 ! D168  D(63,37,40,60)       -145.3963         estimate D2E/DX2                !
 ! D169  D(40,37,53,39)          7.23           estimate D2E/DX2                !
 ! D170  D(40,37,53,43)       -141.0121         estimate D2E/DX2                !
 ! D171  D(63,37,53,39)        152.0411         estimate D2E/DX2                !
 ! D172  D(63,37,53,43)          3.799          estimate D2E/DX2                !
 ! D173  D(40,37,63,66)          0.3822         estimate D2E/DX2                !
 ! D174  D(40,37,63,78)        138.5064         estimate D2E/DX2                !
 ! D175  D(53,37,63,66)       -140.5115         estimate D2E/DX2                !
 ! D176  D(53,37,63,78)         -2.3873         estimate D2E/DX2                !
 ! D177  D(32,38,55,35)          0.1909         estimate D2E/DX2                !
 ! D178  D(32,38,55,41)        143.4705         estimate D2E/DX2                !
 ! D179  D(68,38,55,35)       -143.6822         estimate D2E/DX2                !
 ! D180  D(68,38,55,41)         -0.4026         estimate D2E/DX2                !
 ! D181  D(32,38,68,46)          0.4566         estimate D2E/DX2                !
 ! D182  D(32,38,68,72)       -143.2823         estimate D2E/DX2                !
 ! D183  D(55,38,68,46)        143.971          estimate D2E/DX2                !
 ! D184  D(55,38,68,72)          0.2321         estimate D2E/DX2                !
 ! D185  D(53,39,45,46)        122.7665         estimate D2E/DX2                !
 ! D186  D(53,39,45,70)         -0.1275         estimate D2E/DX2                !
 ! D187  D(60,39,45,46)         -0.068          estimate D2E/DX2                !
 ! D188  D(60,39,45,70)       -122.962          estimate D2E/DX2                !
 ! D189  D(17,39,53,37)        152.2708         estimate D2E/DX2                !
 ! D190  D(17,39,53,43)        -60.8379         estimate D2E/DX2                !
 ! D191  D(45,39,53,37)       -139.6396         estimate D2E/DX2                !
 ! D192  D(45,39,53,43)          7.2517         estimate D2E/DX2                !
 ! D193  D(60,39,53,37)        -11.0649         estimate D2E/DX2                !
 ! D194  D(60,39,53,43)        135.8263         estimate D2E/DX2                !
 ! D195  D(17,39,60,40)       -152.136          estimate D2E/DX2                !
 ! D196  D(17,39,60,72)         61.7819         estimate D2E/DX2                !
 ! D197  D(45,39,60,40)        139.4771         estimate D2E/DX2                !
 ! D198  D(45,39,60,72)         -6.605          estimate D2E/DX2                !
 ! D199  D(53,39,60,40)         10.9396         estimate D2E/DX2                !
 ! D200  D(53,39,60,72)       -135.1425         estimate D2E/DX2                !
 ! D201  D(37,40,57,62)       -138.4118         estimate D2E/DX2                !
 ! D202  D(37,40,57,73)         -0.2147         estimate D2E/DX2                !
 ! D203  D(60,40,57,62)          2.526          estimate D2E/DX2                !
 ! D204  D(60,40,57,73)        140.7231         estimate D2E/DX2                !
 ! D205  D(37,40,60,39)         -6.9234         estimate D2E/DX2                !
 ! D206  D(37,40,60,72)        140.5888         estimate D2E/DX2                !
 ! D207  D(57,40,60,39)       -151.7265         estimate D2E/DX2                !
 ! D208  D(57,40,60,72)         -4.2143         estimate D2E/DX2                !
 ! D209  D(62,41,55,35)         -0.2091         estimate D2E/DX2                !
 ! D210  D(62,41,55,38)       -143.4529         estimate D2E/DX2                !
 ! D211  D(72,41,55,35)        143.663          estimate D2E/DX2                !
 ! D212  D(72,41,55,38)          0.4193         estimate D2E/DX2                !
 ! D213  D(55,41,62,57)        138.2092         estimate D2E/DX2                !
 ! D214  D(55,41,62,84)          0.5993         estimate D2E/DX2                !
 ! D215  D(72,41,62,57)         -1.291          estimate D2E/DX2                !
 ! D216  D(72,41,62,84)       -138.901          estimate D2E/DX2                !
 ! D217  D(55,41,72,60)       -143.8929         estimate D2E/DX2                !
 ! D218  D(55,41,72,68)         -0.2746         estimate D2E/DX2                !
 ! D219  D(62,41,72,60)         -0.4073         estimate D2E/DX2                !
 ! D220  D(62,41,72,68)        143.2109         estimate D2E/DX2                !
 ! D221  D(35,42,84,33)       -138.0739         estimate D2E/DX2                !
 ! D222  D(35,42,84,62)         -0.0509         estimate D2E/DX2                !
 ! D223  D(86,42,84,33)          0.0703         estimate D2E/DX2                !
 ! D224  D(86,42,84,62)        138.0933         estimate D2E/DX2                !
 ! D225  D(35,42,86,44)        142.3715         estimate D2E/DX2                !
 ! D226  D(35,42,86,64)         -0.2871         estimate D2E/DX2                !
 ! D227  D(84,42,86,44)         -0.1799         estimate D2E/DX2                !
 ! D228  D(84,42,86,64)       -142.8385         estimate D2E/DX2                !
 ! D229  D(56,43,53,37)         -2.6418         estimate D2E/DX2                !
 ! D230  D(56,43,53,39)       -146.1106         estimate D2E/DX2                !
 ! D231  D(80,43,53,37)        135.8896         estimate D2E/DX2                !
 ! D232  D(80,43,53,39)         -7.5791         estimate D2E/DX2                !
 ! D233  D(53,43,56,30)        143.6576         estimate D2E/DX2                !
 ! D234  D(53,43,56,78)          0.1616         estimate D2E/DX2                !
 ! D235  D(80,43,56,30)          0.2473         estimate D2E/DX2                !
 ! D236  D(80,43,56,78)       -143.2487         estimate D2E/DX2                !
 ! D237  D(53,43,80,34)       -142.9209         estimate D2E/DX2                !
 ! D238  D(53,43,80,70)          0.0625         estimate D2E/DX2                !
 ! D239  D(56,43,80,34)          0.0341         estimate D2E/DX2                !
 ! D240  D(56,43,80,70)        143.0175         estimate D2E/DX2                !
 ! D241  D(77,44,47,33)        142.6441         estimate D2E/DX2                !
 ! D242  D(77,44,47,75)          0.0592         estimate D2E/DX2                !
 ! D243  D(86,44,47,33)          0.0486         estimate D2E/DX2                !
 ! D244  D(86,44,47,75)       -142.5362         estimate D2E/DX2                !
 ! D245  D(47,44,77,31)         -0.1037         estimate D2E/DX2                !
 ! D246  D(47,44,77,49)       -142.7817         estimate D2E/DX2                !
 ! D247  D(86,44,77,31)        142.4999         estimate D2E/DX2                !
 ! D248  D(86,44,77,49)         -0.1781         estimate D2E/DX2                !
 ! D249  D(47,44,86,42)          0.1202         estimate D2E/DX2                !
 ! D250  D(47,44,86,64)        138.3582         estimate D2E/DX2                !
 ! D251  D(77,44,86,42)       -138.0555         estimate D2E/DX2                !
 ! D252  D(77,44,86,64)          0.1824         estimate D2E/DX2                !
 ! D253  D(17,45,46,52)        152.3176         estimate D2E/DX2                !
 ! D254  D(17,45,46,68)        -61.5792         estimate D2E/DX2                !
 ! D255  D(39,45,46,52)       -139.4351         estimate D2E/DX2                !
 ! D256  D(39,45,46,68)          6.6681         estimate D2E/DX2                !
 ! D257  D(70,45,46,52)        -10.8878         estimate D2E/DX2                !
 ! D258  D(70,45,46,68)        135.2154         estimate D2E/DX2                !
 ! D259  D(17,45,70,80)         60.8511         estimate D2E/DX2                !
 ! D260  D(17,45,70,81)       -152.5407         estimate D2E/DX2                !
 ! D261  D(39,45,70,80)         -7.0127         estimate D2E/DX2                !
 ! D262  D(39,45,70,81)        139.5955         estimate D2E/DX2                !
 ! D263  D(46,45,70,80)       -135.6436         estimate D2E/DX2                !
 ! D264  D(46,45,70,81)         10.9647         estimate D2E/DX2                !
 ! D265  D(45,46,52,67)        151.7574         estimate D2E/DX2                !
 ! D266  D(45,46,52,81)          6.932          estimate D2E/DX2                !
 ! D267  D(68,46,52,67)          4.2453         estimate D2E/DX2                !
 ! D268  D(68,46,52,81)       -140.5801         estimate D2E/DX2                !
 ! D269  D(45,46,68,38)       -145.805          estimate D2E/DX2                !
 ! D270  D(45,46,68,72)         -6.9293         estimate D2E/DX2                !
 ! D271  D(52,46,68,38)         -3.1641         estimate D2E/DX2                !
 ! D272  D(52,46,68,72)        135.7116         estimate D2E/DX2                !
 ! D273  D(33,47,75,31)       -142.5592         estimate D2E/DX2                !
 ! D274  D(33,47,75,79)          0.0127         estimate D2E/DX2                !
 ! D275  D(44,47,75,31)          0.008          estimate D2E/DX2                !
 ! D276  D(44,47,75,79)        142.5799         estimate D2E/DX2                !
 ! D277  D(82,48,69,58)        138.0514         estimate D2E/DX2                !
 ! D278  D(82,48,69,85)          0.1866         estimate D2E/DX2                !
 ! D279  D(88,48,69,58)         -0.0927         estimate D2E/DX2                !
 ! D280  D(88,48,69,85)       -137.9575         estimate D2E/DX2                !
 ! D281  D(69,48,82,49)       -142.6763         estimate D2E/DX2                !
 ! D282  D(69,48,82,64)         -0.064          estimate D2E/DX2                !
 ! D283  D(88,48,82,49)         -0.0715         estimate D2E/DX2                !
 ! D284  D(88,48,82,64)        142.5408         estimate D2E/DX2                !
 ! D285  D(69,48,88,50)        142.57           estimate D2E/DX2                !
 ! D286  D(69,48,88,61)         -0.0095         estimate D2E/DX2                !
 ! D287  D(82,48,88,50)         -0.0045         estimate D2E/DX2                !
 ! D288  D(82,48,88,61)       -142.584          estimate D2E/DX2                !
 ! D289  D(77,49,50,36)         -0.2027         estimate D2E/DX2                !
 ! D290  D(77,49,50,88)       -142.8161         estimate D2E/DX2                !
 ! D291  D(82,49,50,36)        142.4904         estimate D2E/DX2                !
 ! D292  D(82,49,50,88)         -0.1229         estimate D2E/DX2                !
 ! D293  D(50,49,77,31)          0.0167         estimate D2E/DX2                !
 ! D294  D(50,49,77,44)        138.2517         estimate D2E/DX2                !
 ! D295  D(82,49,77,31)       -138.2348         estimate D2E/DX2                !
 ! D296  D(82,49,77,44)          0.0003         estimate D2E/DX2                !
 ! D297  D(50,49,82,48)          0.1202         estimate D2E/DX2                !
 ! D298  D(50,49,82,64)       -142.5019         estimate D2E/DX2                !
 ! D299  D(77,49,82,48)        142.7951         estimate D2E/DX2                !
 ! D300  D(77,49,82,64)          0.173          estimate D2E/DX2                !
 ! D301  D(36,50,88,48)       -142.5523         estimate D2E/DX2                !
 ! D302  D(36,50,88,61)          0.0434         estimate D2E/DX2                !
 ! D303  D(49,50,88,48)          0.0787         estimate D2E/DX2                !
 ! D304  D(49,50,88,61)        142.6744         estimate D2E/DX2                !
 ! D305  D(36,51,54,30)       -142.1541         estimate D2E/DX2                !
 ! D306  D(36,51,54,83)          0.4483         estimate D2E/DX2                !
 ! D307  D(76,51,54,30)          0.4863         estimate D2E/DX2                !
 ! D308  D(76,51,54,83)        143.0887         estimate D2E/DX2                !
 ! D309  D(36,51,76,29)        138.0774         estimate D2E/DX2                !
 ! D310  D(36,51,76,61)          0.099          estimate D2E/DX2                !
 ! D311  D(54,51,76,29)         -0.11           estimate D2E/DX2                !
 ! D312  D(54,51,76,61)       -138.0883         estimate D2E/DX2                !
 ! D313  D(46,52,67,32)         -2.518          estimate D2E/DX2                !
 ! D314  D(46,52,67,58)       -140.7235         estimate D2E/DX2                !
 ! D315  D(81,52,67,32)        138.4471         estimate D2E/DX2                !
 ! D316  D(81,52,67,58)          0.2416         estimate D2E/DX2                !
 ! D317  D(46,52,81,70)          0.1167         estimate D2E/DX2                !
 ! D318  D(46,52,81,87)        145.3441         estimate D2E/DX2                !
 ! D319  D(67,52,81,70)       -145.1749         estimate D2E/DX2                !
 ! D320  D(67,52,81,87)          0.0525         estimate D2E/DX2                !
 ! D321  D(30,54,83,59)        142.1489         estimate D2E/DX2                !
 ! D322  D(30,54,83,71)         -0.4858         estimate D2E/DX2                !
 ! D323  D(51,54,83,59)         -0.4544         estimate D2E/DX2                !
 ! D324  D(51,54,83,71)       -143.0891         estimate D2E/DX2                !
 ! D325  D(30,56,78,63)       -138.2475         estimate D2E/DX2                !
 ! D326  D(30,56,78,71)         -0.5641         estimate D2E/DX2                !
 ! D327  D(43,56,78,63)          1.2473         estimate D2E/DX2                !
 ! D328  D(43,56,78,71)        138.9307         estimate D2E/DX2                !
 ! D329  D(40,57,62,41)          0.2242         estimate D2E/DX2                !
 ! D330  D(40,57,62,84)        142.4316         estimate D2E/DX2                !
 ! D331  D(73,57,62,41)       -142.3926         estimate D2E/DX2                !
 ! D332  D(73,57,62,84)         -0.1852         estimate D2E/DX2                !
 ! D333  D(40,57,73,33)       -142.1909         estimate D2E/DX2                !
 ! D334  D(40,57,73,66)          0.2869         estimate D2E/DX2                !
 ! D335  D(62,57,73,33)          0.1716         estimate D2E/DX2                !
 ! D336  D(62,57,73,66)        142.6494         estimate D2E/DX2                !
 ! D337  D(69,58,67,32)         -0.163          estimate D2E/DX2                !
 ! D338  D(69,58,67,52)        142.2021         estimate D2E/DX2                !
 ! D339  D(74,58,67,32)       -142.603          estimate D2E/DX2                !
 ! D340  D(74,58,67,52)         -0.2378         estimate D2E/DX2                !
 ! D341  D(67,58,69,48)       -142.2727         estimate D2E/DX2                !
 ! D342  D(67,58,69,85)          0.1033         estimate D2E/DX2                !
 ! D343  D(74,58,69,48)          0.0997         estimate D2E/DX2                !
 ! D344  D(74,58,69,85)        142.4757         estimate D2E/DX2                !
 ! D345  D(67,58,74,61)        137.8851         estimate D2E/DX2                !
 ! D346  D(67,58,74,87)         -0.0583         estimate D2E/DX2                !
 ! D347  D(69,58,74,61)         -0.0044         estimate D2E/DX2                !
 ! D348  D(69,58,74,87)       -137.9478         estimate D2E/DX2                !
 ! D349  D(31,59,83,54)       -142.354          estimate D2E/DX2                !
 ! D350  D(31,59,83,71)          0.2299         estimate D2E/DX2                !
 ! D351  D(36,59,83,54)          0.287          estimate D2E/DX2                !
 ! D352  D(36,59,83,71)        142.8709         estimate D2E/DX2                !
 ! D353  D(39,60,72,41)        145.7322         estimate D2E/DX2                !
 ! D354  D(39,60,72,68)          7.0133         estimate D2E/DX2                !
 ! D355  D(40,60,72,41)          3.1055         estimate D2E/DX2                !
 ! D356  D(40,60,72,68)       -135.6134         estimate D2E/DX2                !
 ! D357  D(76,61,74,58)       -142.5165         estimate D2E/DX2                !
 ! D358  D(76,61,74,87)         -0.1003         estimate D2E/DX2                !
 ! D359  D(88,61,74,58)         -0.0979         estimate D2E/DX2                !
 ! D360  D(88,61,74,87)        142.3183         estimate D2E/DX2                !
 ! D361  D(74,61,76,29)          0.0217         estimate D2E/DX2                !
 ! D362  D(74,61,76,51)        142.4439         estimate D2E/DX2                !
 ! D363  D(88,61,76,29)       -142.3283         estimate D2E/DX2                !
 ! D364  D(88,61,76,51)          0.0938         estimate D2E/DX2                !
 ! D365  D(74,61,88,48)          0.1047         estimate D2E/DX2                !
 ! D366  D(74,61,88,50)       -138.0602         estimate D2E/DX2                !
 ! D367  D(76,61,88,48)        137.9995         estimate D2E/DX2                !
 ! D368  D(76,61,88,50)         -0.1654         estimate D2E/DX2                !
 ! D369  D(41,62,84,33)        141.9869         estimate D2E/DX2                !
 ! D370  D(41,62,84,42)         -0.4712         estimate D2E/DX2                !
 ! D371  D(57,62,84,33)          0.1278         estimate D2E/DX2                !
 ! D372  D(57,62,84,42)       -142.3303         estimate D2E/DX2                !
 ! D373  D(37,63,66,73)         -0.3098         estimate D2E/DX2                !
 ! D374  D(37,63,66,79)        142.1398         estimate D2E/DX2                !
 ! D375  D(78,63,66,73)       -142.5896         estimate D2E/DX2                !
 ! D376  D(78,63,66,79)         -0.14           estimate D2E/DX2                !
 ! D377  D(37,63,78,56)         -0.1287         estimate D2E/DX2                !
 ! D378  D(37,63,78,71)       -142.4032         estimate D2E/DX2                !
 ! D379  D(66,63,78,56)        142.408          estimate D2E/DX2                !
 ! D380  D(66,63,78,71)          0.1334         estimate D2E/DX2                !
 ! D381  D(82,64,65,35)       -142.356          estimate D2E/DX2                !
 ! D382  D(82,64,65,85)          0.225          estimate D2E/DX2                !
 ! D383  D(86,64,65,35)          0.2844         estimate D2E/DX2                !
 ! D384  D(86,64,65,85)        142.8654         estimate D2E/DX2                !
 ! D385  D(65,64,82,48)         -0.1415         estimate D2E/DX2                !
 ! D386  D(65,64,82,49)        138.0501         estimate D2E/DX2                !
 ! D387  D(86,64,82,48)       -138.3601         estimate D2E/DX2                !
 ! D388  D(86,64,82,49)         -0.1685         estimate D2E/DX2                !
 ! D389  D(65,64,86,42)          0.0017         estimate D2E/DX2                !
 ! D390  D(65,64,86,44)       -142.6686         estimate D2E/DX2                !
 ! D391  D(82,64,86,42)        142.661          estimate D2E/DX2                !
 ! D392  D(82,64,86,44)         -0.0092         estimate D2E/DX2                !
 ! D393  D(35,65,85,32)          0.0892         estimate D2E/DX2                !
 ! D394  D(35,65,85,69)        138.0676         estimate D2E/DX2                !
 ! D395  D(64,65,85,32)       -138.0807         estimate D2E/DX2                !
 ! D396  D(64,65,85,69)         -0.1023         estimate D2E/DX2                !
 ! D397  D(63,66,73,33)        137.9009         estimate D2E/DX2                !
 ! D398  D(63,66,73,57)         -0.0252         estimate D2E/DX2                !
 ! D399  D(79,66,73,33)          0.0088         estimate D2E/DX2                !
 ! D400  D(79,66,73,57)       -137.9173         estimate D2E/DX2                !
 ! D401  D(63,66,79,71)          0.0926         estimate D2E/DX2                !
 ! D402  D(63,66,79,75)       -142.2865         estimate D2E/DX2                !
 ! D403  D(73,66,79,71)        142.4687         estimate D2E/DX2                !
 ! D404  D(73,66,79,75)          0.0897         estimate D2E/DX2                !
 ! D405  D(38,68,72,41)          0.0262         estimate D2E/DX2                !
 ! D406  D(38,68,72,60)        143.2242         estimate D2E/DX2                !
 ! D407  D(46,68,72,41)       -143.2792         estimate D2E/DX2                !
 ! D408  D(46,68,72,60)         -0.0811         estimate D2E/DX2                !
 ! D409  D(48,69,85,32)        142.3158         estimate D2E/DX2                !
 ! D410  D(48,69,85,65)         -0.1032         estimate D2E/DX2                !
 ! D411  D(58,69,85,32)         -0.0052         estimate D2E/DX2                !
 ! D412  D(58,69,85,65)       -142.4243         estimate D2E/DX2                !
 ! D413  D(45,70,80,34)        145.9393         estimate D2E/DX2                !
 ! D414  D(45,70,80,43)          7.4067         estimate D2E/DX2                !
 ! D415  D(81,70,80,34)          2.7732         estimate D2E/DX2                !
 ! D416  D(81,70,80,43)       -135.7594         estimate D2E/DX2                !
 ! D417  D(45,70,81,52)         -7.1183         estimate D2E/DX2                !
 ! D418  D(45,70,81,87)       -151.9073         estimate D2E/DX2                !
 ! D419  D(80,70,81,52)        140.8752         estimate D2E/DX2                !
 ! D420  D(80,70,81,87)         -3.9138         estimate D2E/DX2                !
 ! D421  D(79,71,78,56)       -142.0123         estimate D2E/DX2                !
 ! D422  D(79,71,78,63)         -0.0758         estimate D2E/DX2                !
 ! D423  D(83,71,78,56)          0.3955         estimate D2E/DX2                !
 ! D424  D(83,71,78,63)        142.332          estimate D2E/DX2                !
 ! D425  D(78,71,79,66)         -0.0107         estimate D2E/DX2                !
 ! D426  D(78,71,79,75)        142.3074         estimate D2E/DX2                !
 ! D427  D(83,71,79,66)       -142.4273         estimate D2E/DX2                !
 ! D428  D(83,71,79,75)         -0.1092         estimate D2E/DX2                !
 ! D429  D(78,71,83,54)          0.1311         estimate D2E/DX2                !
 ! D430  D(78,71,83,59)       -138.0577         estimate D2E/DX2                !
 ! D431  D(79,71,83,54)        138.0951         estimate D2E/DX2                !
 ! D432  D(79,71,83,59)         -0.0936         estimate D2E/DX2                !
 ! D433  D(58,74,87,29)        142.6399         estimate D2E/DX2                !
 ! D434  D(58,74,87,81)          0.3524         estimate D2E/DX2                !
 ! D435  D(61,74,87,29)          0.1415         estimate D2E/DX2                !
 ! D436  D(61,74,87,81)       -142.146          estimate D2E/DX2                !
 ! D437  D(31,75,79,66)        138.0364         estimate D2E/DX2                !
 ! D438  D(31,75,79,71)          0.1765         estimate D2E/DX2                !
 ! D439  D(47,75,79,66)         -0.1004         estimate D2E/DX2                !
 ! D440  D(47,75,79,71)       -137.9603         estimate D2E/DX2                !
 ! D441  D(52,81,87,29)       -138.4873         estimate D2E/DX2                !
 ! D442  D(52,81,87,74)         -0.3487         estimate D2E/DX2                !
 ! D443  D(70,81,87,29)          2.4082         estimate D2E/DX2                !
 ! D444  D(70,81,87,74)        140.5468         estimate D2E/DX2                !
 --------------------------------------------------------------------------------
 Trust Radius=3.00D-01 FncErr=5.00D-06 GrdErr=5.00D-06 EigMax=2.50D+02 EigMin=1.00D-04
 Number of steps in this run=    528 maximum allowed number of steps=    528.
 GradGradGradGradGradGradGradGradGradGradGradGradGradGradGradGradGradGrad

 Stoichiometry    C72H14O2
 Framework group  C1[X(C72H14O2)]
 Deg. of freedom   258
 Full point group                 C1      NOp   1
 Largest Abelian subgroup         C1      NOp   1
 Largest concise Abelian subgroup C1      NOp   1
                         Standard orientation:                         
 ---------------------------------------------------------------------
 Center     Atomic      Atomic             Coordinates (Angstroms)
 Number     Number       Type             X           Y           Z
 ---------------------------------------------------------------------
      1          8           0       -8.272628   -2.898315   -0.489506
      2          6           0       -9.308801   -3.449690    0.341967
      3          1           0       -8.878015   -4.060125    1.147444
      4          1           0       -9.934177   -4.079868   -0.297700
      5          1           0       -9.923055   -2.649961    0.778834
      6          8           0       -7.421321   -1.807344    1.307720
      7          6           0       -7.364476   -2.070845    0.113330
      8          6           0       -6.313760   -1.545819   -0.869290
      9          1           0       -6.830684   -1.088660   -1.725030
     10          1           0       -5.767205   -2.404685   -1.285614
     11          6           0       -5.330785   -0.539854   -0.228920
     12          1           0       -5.901201    0.287164    0.211585
     13          1           0       -4.809827   -1.026738    0.605357
     14          6           0       -4.295263    0.010742   -1.240165
     15          1           0       -3.804315   -0.829828   -1.746131
     16          1           0       -4.812571    0.565543   -2.035704
     17          6           0       -3.233723    0.959850   -0.598073
     18          6           0       -3.826665    2.322001   -0.196184
     19          6           0       -3.944186    3.350491   -1.151196
     20          1           0       -3.585569    3.188990   -2.168343
     21          6           0       -4.507933    4.582520   -0.807485
     22          1           0       -4.583461    5.369766   -1.557270
     23          6           0       -4.972173    4.805436    0.493500
     24          1           0       -5.409631    5.766620    0.761356
     25          6           0       -4.874499    3.786411    1.446478
     26          1           0       -5.239229    3.949486    2.460071
     27          6           0       -4.309921    2.553313    1.105888
     28          1           0       -4.244209    1.768584    1.859959
     29          6           0        1.786594    3.219202   -1.134060
     30          6           0        1.467405    3.140232    1.327699
     31          6           0        4.474519   -0.291534    2.174789
     32          6           0        0.991418   -1.490963   -3.232085
     33          6           0        1.942614   -2.844447    2.360293
     34          6           0        0.929426    3.329445   -0.013052
     35          6           0        1.771347   -3.462431   -1.299823
     36          6           0        4.656757    1.638389    0.615025
     37          6           0       -1.020249    0.042655    2.382943
     38          6           0        0.006600   -2.138717   -2.448094
     39          6           0       -2.138020    0.359341    0.288492
     40          6           0       -1.243503   -1.270921    1.798578
     41          6           0       -0.466615   -3.011199   -0.310290
     42          6           0        2.312990   -3.659596    0.040539
     43          6           0       -0.711340    2.229034    1.289727
     44          6           0        4.114550   -2.422055    1.225900
     45          6           0       -1.813986    0.957815   -1.180192
     46          6           0       -1.239420   -0.015811   -2.171573
     47          6           0        3.244101   -2.294036    2.388668
     48          6           0        4.293390   -0.355541   -2.360792
     49          6           0        5.159274   -0.662204   -0.187361
     50          6           0        5.049909    0.771858   -0.430316
     51          6           0        3.715773    2.718968    0.351495
     52          6           0       -0.199842    0.656504   -2.924031
     53          6           0       -1.457089    1.048199    1.438086
[...]
 Alpha virt. eigenvalues --    0.74380   0.74460   0.74623   0.74713   0.74808
 Alpha virt. eigenvalues --    0.74960   0.75044   0.75149   0.75266   0.75342
 Alpha virt. eigenvalues --    0.75396   0.75508   0.75646   0.75665   0.75793
 Alpha virt. eigenvalues --    0.75960   0.76081   0.76317   0.76591   0.76945
 Alpha virt. eigenvalues --    0.77073   0.77453   0.77551   0.77876   0.78062
 Alpha virt. eigenvalues --    0.78267   0.78743   0.78804   0.78918   0.78996
 Alpha virt. eigenvalues --    0.79275   0.79383   0.79481   0.79533   0.79713
 Alpha virt. eigenvalues --    0.79801   0.79909   0.80018   0.80125   0.80395
 Alpha virt. eigenvalues --    0.80412   0.80547   0.80632   0.80705   0.80940
 Alpha virt. eigenvalues --    0.81161   0.81227   0.81401   0.81525   0.81641
 Alpha virt. eigenvalues --    0.81730   0.81755   0.81790   0.81946   0.81978
 Alpha virt. eigenvalues --    0.82104   0.82355   0.82595   0.82957   0.83296
 Alpha virt. eigenvalues --    0.83649   0.83845   0.84419   0.84697   0.84932
 Alpha virt. eigenvalues --    0.85492   0.85555   0.86542   0.86626   0.86942
 Alpha virt. eigenvalues --    0.87095   0.87299   0.87816   0.88211   0.88471
 Alpha virt. eigenvalues --    0.88978   0.89146   0.89306   0.89361   0.89669
 Alpha virt. eigenvalues --    0.89802   0.90420   0.90491   0.90765   0.90933
 Alpha virt. eigenvalues --    0.91811   0.92031   0.92233   0.92358   0.92892
 Alpha virt. eigenvalues --    0.93172   0.93218   0.93588   0.94225   0.94699
 Alpha virt. eigenvalues --    0.95093   0.95682   0.95854   0.96324   0.96701
 Alpha virt. eigenvalues --    0.96762   0.97190   0.97286   0.97596   0.97759
 Alpha virt. eigenvalues --    0.98589   0.99351   0.99855   1.00026   1.00104
 Alpha virt. eigenvalues --    1.00304   1.00370   1.00619   1.00760   1.01149
 Alpha virt. eigenvalues --    1.01977   1.02179   1.02774   1.03180   1.03360
 Alpha virt. eigenvalues --    1.03904   1.04361   1.04541   1.05096   1.05414
 Alpha virt. eigenvalues --    1.05785   1.06045   1.07081   1.07555   1.07739
 Alpha virt. eigenvalues --    1.08086   1.08318   1.08359   1.08484   1.08879
 Alpha virt. eigenvalues --    1.08932   1.09040   1.09104   1.09402   1.10587
 Alpha virt. eigenvalues --    1.11376   1.12583   1.13644   1.13744   1.13901
 Alpha virt. eigenvalues --    1.14381   1.15182   1.15964   1.16190   1.16362
 Alpha virt. eigenvalues --    1.17158   1.17504   1.18033   1.18279   1.18633
 Alpha virt. eigenvalues --    1.19055   1.19466   1.19721   1.20542   1.20926
 Alpha virt. eigenvalues --    1.21294   1.21740   1.21879   1.23148   1.23385
 Alpha virt. eigenvalues --    1.23514   1.23543   1.23794   1.23901   1.24842
 Alpha virt. eigenvalues --    1.25089   1.25341   1.25574   1.25826   1.26549
 Alpha virt. eigenvalues --    1.27095   1.27717   1.28238   1.29125   1.29246
 Alpha virt. eigenvalues --    1.29359   1.29643   1.30702   1.30876   1.31978
 Alpha virt. eigenvalues --    1.32454   1.33138   1.33606   1.34280   1.34564
 Alpha virt. eigenvalues --    1.34965   1.35311   1.35595   1.35693   1.36051
 Alpha virt. eigenvalues --    1.36533   1.36972   1.37685   1.38188   1.38389
 Alpha virt. eigenvalues --    1.38695   1.40033   1.40385   1.41872   1.43394
 Alpha virt. eigenvalues --    1.44210   1.44818   1.45868   1.46327   1.46502
 Alpha virt. eigenvalues --    1.47792   1.48724   1.48827   1.49002   1.49606
 Alpha virt. eigenvalues --    1.49671   1.50344   1.50790   1.51133   1.51523
 Alpha virt. eigenvalues --    1.51770   1.51947   1.52245   1.52900   1.53705
 Alpha virt. eigenvalues --    1.54060   1.54532   1.54909   1.55332   1.55630
 Alpha virt. eigenvalues --    1.56109   1.56289   1.56972   1.57951   1.59401
 Alpha virt. eigenvalues --    1.60687   1.60707   1.61464   1.61809   1.62712
 Alpha virt. eigenvalues --    1.63405   1.63796   1.64323   1.65596   1.65893
 Alpha virt. eigenvalues --    1.66355   1.66702   1.67768   1.68436   1.69233
 Alpha virt. eigenvalues --    1.70188   1.70863   1.71547   1.71935   1.72078
 Alpha virt. eigenvalues --    1.72602   1.72856   1.73193   1.73298   1.73549
 Alpha virt. eigenvalues --    1.74170   1.74500   1.74655   1.74985   1.75090
 Alpha virt. eigenvalues --    1.75203   1.75410   1.75570   1.75644   1.75844
 Alpha virt. eigenvalues --    1.76129   1.76354   1.76530   1.76598   1.76751
 Alpha virt. eigenvalues --    1.76823   1.76974   1.77695   1.77981   1.78238
 Alpha virt. eigenvalues --    1.78348   1.78488   1.78893   1.79509   1.79705
 Alpha virt. eigenvalues --    1.80673   1.80782   1.80847   1.81344   1.81643
 Alpha virt. eigenvalues --    1.81681   1.81844   1.81921   1.82044   1.82430
 Alpha virt. eigenvalues --    1.82484   1.82685   1.83088   1.83662   1.83813
 Alpha virt. eigenvalues --    1.84655   1.85051   1.85419   1.85978   1.86274
 Alpha virt. eigenvalues --    1.87113   1.87390   1.87818   1.88141   1.88352
 Alpha virt. eigenvalues --    1.88550   1.88846   1.89144   1.89626   1.89863
 Alpha virt. eigenvalues --    1.90016   1.90478   1.90871   1.91531   1.91832
 Alpha virt. eigenvalues --    1.93055   1.93485   1.93580   1.94322   1.94520
 Alpha virt. eigenvalues --    1.95384   1.96299   1.96651   1.97016   1.97091
 Alpha virt. eigenvalues --    1.97390   1.97557   1.97922   1.98592   1.98632
 Alpha virt. eigenvalues --    1.99161   1.99455   1.99954   2.00111   2.00370
 Alpha virt. eigenvalues --    2.00719   2.01123   2.01653   2.01868   2.02070
 Alpha virt. eigenvalues --    2.02495   2.02835   2.03319   2.03616   2.03900
 Alpha virt. eigenvalues --    2.04116   2.04402   2.04704   2.04876   2.05156
 Alpha virt. eigenvalues --    2.05240   2.05388   2.05491   2.05634   2.05715
 Alpha virt. eigenvalues --    2.06246   2.06635   2.06943   2.07596   2.07876
 Alpha virt. eigenvalues --    2.07903   2.08018   2.08386   2.08651   2.08767
 Alpha virt. eigenvalues --    2.09011   2.09379   2.09879   2.10062   2.10248
 Alpha virt. eigenvalues --    2.10459   2.10564   2.10791   2.10914   2.11148
 Alpha virt. eigenvalues --    2.11477   2.11786   2.12215   2.12563   2.12866
 Alpha virt. eigenvalues --    2.13203   2.13384   2.13650   2.14153   2.14500
 Alpha virt. eigenvalues --    2.14971   2.16238   2.17232   2.17621   2.17841
 Alpha virt. eigenvalues --    2.17924   2.18164   2.18195   2.18435   2.18809
 Alpha virt. eigenvalues --    2.18830   2.18945   2.19007   2.19205   2.19318
 Alpha virt. eigenvalues --    2.19648   2.19708   2.19923   2.20354   2.20454
 Alpha virt. eigenvalues --    2.20977   2.21505   2.22211   2.22837   2.23654
 Alpha virt. eigenvalues --    2.23876   2.25217   2.26450   2.26620   2.27482
 Alpha virt. eigenvalues --    2.27735   2.28195   2.28642   2.28943   2.29865
 Alpha virt. eigenvalues --    2.30569   2.30680   2.32187   2.32947   2.33417
 Alpha virt. eigenvalues --    2.33592   2.34558   2.34958   2.35217   2.35368
 Alpha virt. eigenvalues --    2.36218   2.36468   2.36700   2.37168   2.37540
 Alpha virt. eigenvalues --    2.37822   2.38294   2.39000   2.40007   2.40667
 Alpha virt. eigenvalues --    2.40759   2.41067   2.41375   2.42105   2.42923
 Alpha virt. eigenvalues --    2.43198   2.43821   2.44006   2.44460   2.44994
 Alpha virt. eigenvalues --    2.45124   2.45693   2.46640   2.46844   2.47168
 Alpha virt. eigenvalues --    2.47246   2.47863   2.48074   2.48174   2.48818
 Alpha virt. eigenvalues --    2.49161   2.50111   2.50195   2.50326   2.50941
 Alpha virt. eigenvalues --    2.51208   2.51904   2.52416   2.53363   2.53796
 Alpha virt. eigenvalues --    2.54338   2.54473   2.54632   2.54898   2.55079
 Alpha virt. eigenvalues --    2.55392   2.56095   2.56939   2.57100   2.57245
 Alpha virt. eigenvalues --    2.57785   2.58183   2.58557   2.59044   2.59588
 Alpha virt. eigenvalues --    2.59803   2.60360   2.60922   2.61201   2.61534
 Alpha virt. eigenvalues --    2.61844   2.63555   2.63946   2.64345   2.65101
 Alpha virt. eigenvalues --    2.65351   2.65716   2.66452   2.67048   2.67309
 Alpha virt. eigenvalues --    2.67421   2.67621   2.67937   2.68180   2.68452
 Alpha virt. eigenvalues --    2.68858   2.68960   2.69306   2.69852   2.70576
 Alpha virt. eigenvalues --    2.70719   2.71530   2.71976   2.72224   2.72366
 Alpha virt. eigenvalues --    2.72952   2.73146   2.73758   2.74401   2.74603
 Alpha virt. eigenvalues --    2.74999   2.75294   2.75387   2.75564   2.75602
 Alpha virt. eigenvalues --    2.76208   2.76572   2.77151   2.77499   2.77762
 Alpha virt. eigenvalues --    2.78157   2.78391   2.78832   2.78911   2.79157
 Alpha virt. eigenvalues --    2.79573   2.79861   2.79873   2.80745   2.82011
 Alpha virt. eigenvalues --    2.82131   2.83070   2.83683   2.85045   2.86330
 Alpha virt. eigenvalues --    2.86654   2.86826   2.87237   2.88015   2.88829
 Alpha virt. eigenvalues --    2.89069   2.89881   2.90234   2.90494   2.91379
 Alpha virt. eigenvalues --    2.91565   2.91668   2.91713   2.91768   2.91927
 Alpha virt. eigenvalues --    2.92142   2.92666   2.92913   2.93330   2.93553
 Alpha virt. eigenvalues --    2.94938   2.95762   2.96926   2.97186   2.98016
 Alpha virt. eigenvalues --    2.98525   2.99341   2.99866   3.00419   3.00570
 Alpha virt. eigenvalues --    3.00641   3.01261   3.01614   3.02048   3.02233
 Alpha virt. eigenvalues --    3.02407   3.03841   3.04340   3.04922   3.05725
 Alpha virt. eigenvalues --    3.06011   3.06147   3.06746   3.06943   3.07353
 Alpha virt. eigenvalues --    3.08833   3.10514   3.11968   3.14523   3.15818
 Alpha virt. eigenvalues --    3.16502   3.17526   3.19177   3.19646   3.19925
 Alpha virt. eigenvalues --    3.21484   3.22224   3.28805   3.29578   3.30567
 Alpha virt. eigenvalues --    3.32948   3.34153   3.34552   3.34852   3.35883
 Alpha virt. eigenvalues --    3.39168   3.42762   3.42784   3.43061   3.46727
 Alpha virt. eigenvalues --    3.48667   3.48857   3.52383   3.54420   3.57187
 Alpha virt. eigenvalues --    3.57451   3.71259   3.72177   3.72378   3.74302
          Condensed to atoms (all electrons):
 Mulliken charges:
               1
     1  O   -0.347818
     2  C    0.112704
     3  H    0.065379
     4  H    0.074411
     5  H    0.065227
     6  O   -0.347233
     7  C    0.248247
     8  C   -0.027029
     9  H    0.082310
    10  H    0.081053
    11  C   -0.088999
    12  H    0.043945
    13  H    0.043044
    14  C    0.162470
    15  H    0.029667
    16  H    0.042255
    17  C   -0.045741
    18  C   -0.034055
    19  C   -0.029517
    20  H    0.042315
    21  C   -0.044684
    22  H    0.048762
    23  C   -0.035130
    24  H    0.050346
    25  C   -0.045979
    26  H    0.047992
    27  C   -0.021434
    28  H    0.043988
    29  C   -0.009238
    30  C   -0.003588
    31  C   -0.001477
    32  C   -0.009751
    33  C   -0.000116
    34  C    0.005238
    35  C   -0.004402
    36  C   -0.002009
    37  C    0.014247
    38  C    0.005116
    39  C   -0.161537
    40  C    0.011290
    41  C    0.007408
    42  C   -0.003108
    43  C   -0.010076
    44  C   -0.001080
    45  C   -0.153770
    46  C    0.068962
    47  C   -0.001674
    48  C   -0.001009
    49  C   -0.001924
    50  C   -0.001358
    51  C   -0.003043
    52  C    0.007985
    53  C    0.063812
    54  C   -0.003693
    55  C   -0.005229
    56  C    0.003760
    57  C   -0.015300
    58  C   -0.002839
    59  C   -0.002364
    60  C    0.076632
    61  C   -0.000075
    62  C   -0.010210
    63  C   -0.016714
    64  C   -0.001496
    65  C   -0.002785
    66  C   -0.002994
    67  C   -0.015425
    68  C   -0.019192
    69  C   -0.000509
    70  C    0.070271
    71  C   -0.004982
    72  C   -0.022096
    73  C   -0.002023
    74  C   -0.002555
    75  C   -0.001218
    76  C   -0.004424
    77  C   -0.002406
    78  C   -0.008196
    79  C   -0.000338
    80  C   -0.016181
    81  C    0.012114
    82  C   -0.001708
    83  C   -0.002852
    84  C   -0.004155
    85  C   -0.003967
    86  C   -0.002099
    87  C   -0.014692
    88  C   -0.001453
 Sum of Mulliken charges =  -0.00000
 Mulliken charges with hydrogens summed into heavy atoms:
               1
     1  O   -0.347818
     2  C    0.317720
     6  O   -0.347233
     7  C    0.248247
     8  C    0.136334
    11  C   -0.002009
    14  C    0.234392
    17  C   -0.045741
    18  C   -0.034055
    19  C    0.012798
    21  C    0.004078
    23  C    0.015215
    25  C    0.002013
    27  C    0.022554
    29  C   -0.009238
    30  C   -0.003588
    31  C   -0.001477
    32  C   -0.009751
    33  C   -0.000116
    34  C    0.005238
    35  C   -0.004402
    36  C   -0.002009
    37  C    0.014247
    38  C    0.005116
    39  C   -0.161537
    40  C    0.011290
    41  C    0.007408
    42  C   -0.003108
    43  C   -0.010076
    44  C   -0.001080
    45  C   -0.153770
    46  C    0.068962
    47  C   -0.001674
    48  C   -0.001009
    49  C   -0.001924
    50  C   -0.001358
    51  C   -0.003043
    52  C    0.007985
    53  C    0.063812
    54  C   -0.003693
    55  C   -0.005229
    56  C    0.003760
    57  C   -0.015300
    58  C   -0.002839
    59  C   -0.002364
    60  C    0.076632
    61  C   -0.000075
    62  C   -0.010210
    63  C   -0.016714
    64  C   -0.001496
    65  C   -0.002785
    66  C   -0.002994
    67  C   -0.015425
    68  C   -0.019192
    69  C   -0.000509
    70  C    0.070271
    71  C   -0.004982
    72  C   -0.022096
    73  C   -0.002023
    74  C   -0.002555
    75  C   -0.001218
    76  C   -0.004424
    77  C   -0.002406
    78  C   -0.008196
    79  C   -0.000338
    80  C   -0.016181
    81  C    0.012114
    82  C   -0.001708
    83  C   -0.002852
    84  C   -0.004155
    85  C   -0.003967
    86  C   -0.002099
    87  C   -0.014692
    88  C   -0.001453
 Electronic spatial extent (au):  <R**2>=          36334.2636
 Charge=             -0.0000 electrons
 Dipole moment (field-independent basis, Debye):
    X=             -4.8020    Y=             -0.3159    Z=             -2.7602  Tot=              5.5478
 Quadrupole moment (field-independent basis, Debye-Ang):
   XX=           -396.8311   YY=           -408.2250   ZZ=           -420.5779
   XY=              5.6202   XZ=             14.8579   YZ=             -0.2228
 Traceless Quadrupole moment (field-independent basis, Debye-Ang):
   XX=             11.7136   YY=              0.3197   ZZ=            -12.0332
   XY=              5.6202   XZ=             14.8579   YZ=             -0.2228
 Octapole moment (field-independent basis, Debye-Ang**2):
  XXX=           -509.8050  YYY=              1.4261  ZZZ=             -6.8165  XYY=           -214.2184
  XXY=           -107.2312  XXZ=            -83.8097  XZZ=            -89.2117  YZZ=             18.4489
  YYZ=             -1.8060  XYZ=             -6.8873
 Hexadecapole moment (field-independent basis, Debye-Ang**3):
 XXXX=         -27949.6959 YYYY=         -12398.3499 ZZZZ=          -9349.8206 XXXY=           1577.1528
 XXXZ=            475.9694 YYYX=            243.3985 YYYZ=            -57.2896 ZZZX=             17.8590
 ZZZY=             -3.3625 XXYY=          -6247.8597 XXZZ=          -6764.8762 YYZZ=          -3653.4429
 XXYZ=             48.5903 YYXZ=            -58.0506 ZZXY=            -42.3569
 N-N= 1.174589032551D+04 E-N=-3.020018354623D+04  KE= 2.869322160896D+03
 1\1\GINC-NODE008\FOpt\RwB97XD\def2SVP\C72H14O2\PSYCHE\07-Feb-2020\0\\#
  wB97XD/Def2SVP Opt # SCRF=(SMD,Solvent=Water) # Integral=(Grid=UltraF
 ineGrid)\\Geometry optimisation, Mol: A1\\0,1\O,-3.394812992,2.3820018
 036,8.7012895661\C,-4.2985758016,3.2511535668,9.3784400726\H,-3.783466
 5129,4.1621588427,9.7142317036\H,-4.6689805546,2.691553323,10.24408049
 55\H,-5.1373862845,3.5264602512,8.7237331924\O,-3.022313175,3.96735422
 68,7.1712243862\C,-2.8111345651,2.8530169482,7.5994522802\C,-1.8854130
 47,1.8430232425,6.9817415575\H,-2.481142561,0.9411333403,6.7645037153\
 H,-1.1613697071,1.5428404292,7.7569473184\C,-1.1794183363,2.3504488561
 ,5.7353100616\H,-1.9282925825,2.661130346,4.990548169\H,-0.5951102091,
 3.2512897602,5.9858422332\C,-0.2534823329,1.2933424071,5.1450908477\H,
 0.4321416199,0.9403849661,5.9287297049\H,-0.83346247,0.4135272002,4.82
 2678586\C,0.5339708045,1.7971176584,3.9430406302\C,-0.314302844,2.0751
 780647,2.7305177816\C,-0.6291691553,1.0336659737,1.8516738327\H,-0.215
 5122295,0.0372289145,2.0274161557\C,-1.4588864444,1.2611163734,0.75510
 3992\H,-1.6949216767,0.440872016,0.073562032\C,-1.9836569918,2.5342154
 082,0.5276876263\H,-2.6314764479,2.7141132679,-0.333187104\C,-1.677907
 3427,3.5759642121,1.4033204944\H,-2.086925643,4.5742263992,1.232820976
 9\C,-0.8471629641,3.3470498883,2.5000838009\H,-0.6091317854,4.16535449
 11,3.1837944293\C,4.9259738794,1.0199188007,0.7739160691\C,4.613203654
 6,3.4564497473,0.6925927962\C,8.2131662313,4.5854782856,3.3040497747\C
 ,5.1406341447,-0.6066801944,5.6816788664\C,6.2844900676,5.0285289819,6
 .2694882343\C,4.0657544807,2.1149148449,0.7421635356\C,6.2740764466,1.
 476442486,7.2407061938\C,8.0158685303,2.8629453563,1.5579640853\C,2.82
 58005174,4.8067861277,4.0864794571\C,4.3149082898,0.2305102625,6.42768
 61401\C,1.6989243594,2.7159249428,4.2041618426\C,2.8836186391,4.352189
 1099,5.4604627955\C,4.0087334127,2.4351259697,7.1723290207\C,6.8266316
 347,2.8175870474,7.1972024441\C,2.6799575527,3.5250438101,2.0215337052
 \C,8.3104461719,3.8479879785,5.5296098216\C,1.9047681405,1.2180656768,
 3.7002673628\C,2.6762344367,0.3303062462,4.6148799658\C,7.4248223479,4
 .9942733966,5.4759091889\C,8.1001621258,0.1177776044,3.8295717272\C,8.
 9798524577,2.2913716923,3.7469270362\C,8.5827034258,1.9170126687,2.403
 0841931\C,6.8824136196,2.508618124,0.7286219046\C,3.5546088659,-0.4915
 905806,3.8246509168\C,2.2104026244,3.7770103349,3.2935309208\C,5.98790
 75092,3.6503744019,0.6823989993\C,4.8982314517,1.291645558,7.224282182
 1\C,3.7610457746,4.3195414812,1.4863912227\C,3.9636463723,4.7043530858
 ,6.2627683699\C,5.9408176568,-1.0128249874,3.5156125035\C,7.8271099127
 ,4.2265554678,2.0184532535\C,2.2995014271,3.0378651748,5.5295982476\C,
 6.9547979013,0.2331457203,1.6555024093\C,4.5407101321,3.721724942,7.14
 32022409\C,3.8471063325,5.5970871323,3.5696147485\C,8.2061169887,1.419
 7094563,5.9125377084\C,7.1323238535,0.6114415263,6.4523964231\C,4.9791
 915492,5.9551375192,4.4044600946\C,4.7502886232,-0.9751630685,4.345470
 6904\C,3.0621105511,0.7035500718,5.8861725859\C,7.0724601148,-0.659963
 5044,4.3493178523\C,2.5804153676,1.0730292278,2.3799357186\C,5.7638026
 06,5.5447169459,2.2337207148\C,2.8683408763,2.0891180257,6.3548658496\
 C,5.0361642103,5.5184435735,5.7201007874\C,5.8834215372,-0.576563167,2
 .1999191604\C,7.3650330108,5.4504115757,4.0998812434\C,6.3619841698,1.
 2221722361,0.774612092\C,8.7992752596,3.5956382962,4.1874944183\C,4.32
 69605953,5.3488147788,2.2350486285\C,6.1674737618,5.9217182117,3.57553
 86372\C,2.8704632617,2.1393330862,1.5539283846\C,3.4949481001,-0.03562
 87532,2.4510325134\C,8.6793825221,1.179358441,4.6284763851\C,6.5771427
 792,4.7149525778,1.4733999106\C,5.9778475937,3.9154930518,7.1485206211
 \C,6.5769050945,-0.4069423511,5.6892743812\C,8.0172232886,2.7833910394
 ,6.3729229149\C,4.6329705893,-0.0824354605,1.6525727065\C,8.0401924001
 ,0.5740117887,2.4536258635\\Version=ES64L-G16RevA.03\State=1-A\HF=-289
 9.3985076\RMSD=2.500e-09\RMSF=2.455e-06\Dipole=-1.8138006,-1.0445018,0
 .6189972\Quadrupole=6.4784846,-9.0797102,2.6012256,10.3650154,-6.59101
 61,-1.0083434\PG=C01 [X(C72H14O2)]\\@


 ALL OUR THINKING ABOUT NATURE MUST NECESSARILY MOVE IN CIRCLES OR SPIRALS;
 FOR WE CAN ONLY UNDERSTAND NATURE IF WE THINK ABOUT HER, AND WE CAN ONLY
 THINK BECAUSE OUR BRAIN IS BUILT IN ACCORDANCE WITH NATURE'S LAWS.

                                             -- TIMOTHY FERRIS, "GALAXIES"
 Job cpu time:       3 days 16 hours 14 minutes 15.3 seconds.
 Elapsed time:       0 days  2 hours 17 minutes 51.3 seconds.
 File lengths (MBytes):  RWF=   1335 Int=      0 D2E=      0 Chk=    102 Scr=      1
 Normal termination of Gaussian 16 at Fri Feb  7 01:22:17 2020.
