 Entering Gaussian System, Link 0=g16
 Initial command:
 /opt/apps/chemistry/Gaussian/g16/l1.exe "/tmp/Gau-15056.inp" -scrdir="/tmp/"
 Entering Link 1 = /opt/apps/chemistry/Gaussian/g16/l1.exe PID=     15057.
  
 Copyright (c) 1988,1990,1992,1993,1995,1998,2003,2009,2016,
            Gaussian, Inc.  All Rights Reserved.
  
 This is part of the Gaussian(R) 16 program.  It is based on
 the Gaussian(R) 09 system (copyright 2009, Gaussian, Inc.),
 the Gaussian(R) 03 system (copyright 2003, Gaussian, Inc.),
 the Gaussian(R) 98 system (copyright 1998, Gaussian, Inc.),
 the Gaussian(R) 94 system (copyright 1995, Gaussian, Inc.),
 the Gaussian 92(TM) system (copyright 1992, Gaussian, Inc.),
 the Gaussian 90(TM) system (copyright 1990, Gaussian, Inc.),
 the Gaussian 88(TM) system (copyright 1988, Gaussian, Inc.),
 the Gaussian 86(TM) system (copyright 1986, Carnegie Mellon
 University), and the Gaussian 82(TM) system (copyright 1983,
 Carnegie Mellon University). Gaussian is a federally registered
 trademark of Gaussian, Inc.
  
 This software contains proprietary and confidential information,
 including trade secrets, belonging to Gaussian, Inc.
  
 This software is provided under written license and may be
 used, copied, transmitted, or stored only in accord with that
 written license.
  
 The following legend is applicable only to US Government
 contracts under FAR:
  
                    RESTRICTED RIGHTS LEGEND
  
 Use, reproduction and disclosure by the US Government is
 subject to restrictions as set forth in subparagraphs (a)
 and (c) of the Commercial Computer Software - Restricted
 Rights clause in FAR 52.227-19.
  
 Gaussian, Inc.
 340 Quinnipiac St., Bldg. 40, Wallingford CT 06492
  
  
 ---------------------------------------------------------------
 Warning -- This program may not be used in any manner that
 competes with the business of Gaussian, Inc. or will provide
 assistance to any competitor of Gaussian, Inc.  The licensee
 of this program is prohibited from giving any competitor of
 Gaussian, Inc. access to this program.  By using this program,
 the user acknowledges that Gaussian, Inc. is engaged in the
 business of creating and licensing software in the field of
 computational chemistry and represents and warrants to the
 licensee that it is not a competitor of Gaussian, Inc. and that
 it will not use this program in any manner prohibited above.
 ---------------------------------------------------------------
  

 Cite this work as:
 Gaussian 16, Revision A.03,
 M. J. Frisch, G. W. Trucks, H. B. Schlegel, G. E. Scuseria, 
 M. A. Robb, J. R. Cheeseman, G. Scalmani, V. Barone, 
 G. A. Petersson, H. Nakatsuji, X. Li, M. Caricato, A. V. Marenich, 
 J. Bloino, B. G. Janesko, R. Gomperts, B. Mennucci, H. P. Hratchian, 
 J. V. Ortiz, A. F. Izmaylov, J. L. Sonnenberg, D. Williams-Young, 
 F. Ding, F. Lipparini, F. Egidi, J. Goings, B. Peng, A. Petrone, 
 T. Henderson, D. Ranasinghe, V. G. Zakrzewski, J. Gao, N. Rega, 
 G. Zheng, W. Liang, M. Hada, M. Ehara, K. Toyota, R. Fukuda, 
 J. Hasegawa, M. Ishida, T. Nakajima, Y. Honda, O. Kitao, H. Nakai, 
 T. Vreven, K. Throssell, J. A. Montgomery, Jr., J. E. Peralta, 
 F. Ogliaro, M. J. Bearpark, J. J. Heyd, E. N. Brothers, K. N. Kudin, 
 V. N. Staroverov, T. A. Keith, R. Kobayashi, J. Normand, 
 K. Raghavachari, A. P. Rendell, J. C. Burant, S. S. Iyengar, 
 J. Tomasi, M. Cossi, J. M. Millam, M. Klene, C. Adamo, R. Cammi, 
 J. W. Ochterski, R. L. Martin, K. Morokuma, O. Farkas, 
 J. B. Foresman, and D. J. Fox, Gaussian, Inc., Wallingford CT, 2016.
 
 ******************************************
 Gaussian 16:  ES64L-G16RevA.03 25-Dec-2016
                 6-Feb-2020 
 ******************************************
 %mem=360GB
 %nprocshared=40
 Will use up to   40 processors via shared memory.
 %Chk=/users/psyche/volatile/gaussian/nanohybrid/chk/A2.chk
 ----------------------------------------------------------------------
 # wB97XD/Def2SVP Opt # SCRF=(SMD,Solvent=Water) # Integral=(Grid=Ultra
 FineGrid)
 ----------------------------------------------------------------------
 1/18=20,19=15,26=6,38=1/1,3;
 2/9=110,12=2,17=6,18=5,40=1/2;
 3/5=43,7=101,11=2,25=1,30=1,70=32201,71=1,72=1,74=-58,75=-5/1,2,3;
 4//1;
 5/5=2,38=5,53=1/2;
 6/7=2,8=2,9=2,10=2,28=1/1;
 7//1,2,3,16;
 1/18=20,19=15,26=6/3(2);
 2/9=110/2;
 99//99;
 2/9=110/2;
 3/5=43,7=101,11=2,25=1,30=1,70=32205,71=1,72=1,74=-58,75=-5/1,2,3;
 4/5=5,16=3,69=1/1;
 5/5=2,38=5,53=1/2;
 7//1,2,3,16;
 1/18=20,19=15,26=6/3(-5);
 2/9=110/2;
 6/7=2,8=2,9=2,10=2,19=2,28=1/1;
 99/9=1/99;
 ------------------------------
 Geometry optimisation, Mol: A2
 ------------------------------
 Symbolic Z-matrix:
 Charge =  0 Multiplicity = 1
 C                     6.17359   15.8834   15.4573 
 C                     7.3005    16.9617   14.992 
 C                     7.32608   15.8087   17.7357 
 C                     6.34945   15.3287   16.8424 
 C                     6.06489   13.9099   16.8089 
 C                     6.6856    13.0217   17.7225 
 C                     7.66346   13.5266   18.6578 
 C                     7.98647   14.8975   18.6528 
 C                     5.87884   13.5071   15.4262 
 C                     6.04811   14.6691   14.5814 
 C                     6.73601   14.5354   13.3615 
 C                     7.75097   15.5152   12.9457 
 C                     8.06458   16.6137   13.7538 
 C                     9.45035   16.9748   13.9439 
 C                     9.6342    17.3759   15.313 
 C                     10.8862   17.1778   15.9836 
 C                     10.8619   16.7066   17.3733 
 C                     9.58683   16.4625   17.9813 
 C                     8.3393    16.7875   17.3095 
 C                     8.36426   17.2745   15.9971 
 C                     9.36948   15.3076   18.8121 
 C                     7.14904   11.7175   17.2768 
 C                     6.96883   11.3278   15.9385 
 C                     6.31881   12.2286   15.0005 
 C                     6.99948   12.0931   13.7341 
 C                     7.21487   13.2331   12.9354 
 C                     8.48498   13.3969   12.2516 
 C                     8.81627   14.7976   12.2652 
 C                     10.1803   15.2343   12.3198 
 C                     10.5106   16.3647   13.1959 
 C                     11.8157   16.4313   13.7811 
 C                     12.0005   16.8309   15.1531 
 C                     13.1418   16.1041   15.6827 
 C                     13.1178   15.6467   17.0132 
 C                     11.9549   15.9084   17.8464 
 C                     11.7339   14.7532   18.6778 
 C                     10.4124   14.3559   19.0645 
 C                     10.0755   12.9195   19.0562 
 C                     8.71903   12.5347   18.8056 
 C                     8.40021   11.4173   17.9541 
 C                     9.42877   10.6453   17.3188 
 C                     9.23932   10.2359   15.9134 
 C                     8.03447   10.6268   15.2403 
 C                     8.05511   11.1006   13.8801 
 C                     9.27841   11.1972   13.1414 
 C                     9.49958   12.3847   12.2941 
 C                     10.844    12.8309   12.076 
 C                     11.9842   12.0934   12.598 
 C                     11.7726   10.9666   13.4124 
 C                     10.415    10.5453   13.723 
 C                     11.1788   14.2317   12.0885 
 C                     12.5256   14.3675   12.62 
 C                     12.8419   15.4554   13.4547 
 C                     13.6756   15.2536   14.6297 
 C                     14.169    13.9654   14.9382 
 C                     13.8441   12.8386   14.0715 
 C                     13.0362   13.0416   12.9282 
 C                     14.1468   13.4925   16.3174 
 C                     13.6305   14.3253   17.3377 
 C                     12.7616   13.7721   18.364 
 C                     12.4379   12.4038   18.3483 
 C                     11.0791   11.9798   18.6499 
 C                     10.7615   10.8639   17.7965 
 C                     11.9231   10.5956   16.9602 
 C                     11.7426   10.2059   15.6217 
 C                     12.6041   10.7475   14.5839 
 C                     13.6252   11.6702   14.9151 
 C                     13.8121   12.0739   16.3018 
 C                     12.9712   11.5405   17.3078 
 C                     10.3958   10.0737   15.0838 
 C                     5.81109   17.3188   15.0677 
 C                     5.05001   17.5173   13.7446 
 C                     3.81432   16.8742   13.5381 
 H                     3.41175   16.2127   14.3062 
 C                     3.10057   17.0657   12.3515 
 H                     2.14959   16.5544   12.2051 
 C                     3.60359   17.9099   11.3557 
 H                     3.04805   18.0564   10.4301 
 C                     4.82203   18.5666   11.5564 
 H                     5.21698   19.231    10.7887 
 C                     5.53902   18.3757   12.7413 
 H                     6.48613   18.8974   12.8822 
 C                     5.31957   18.2827   16.194 
 H                     4.22533   18.199    16.2583 
 H                     5.69326   17.9541   17.1716 
 C                     5.71686   19.7625   15.9699 
 H                     5.26937   20.1343   15.0399 
 H                     6.8032    19.8376   15.8344 
 C                     5.28467   20.679    17.1368 
 H                     5.76138   20.3571   18.0744 
 H                     4.20381   20.5918   17.3165 
 C                     5.62396   22.1542   16.9039 
 O                     6.27824   22.599    15.9693 
 O                     5.10979   22.9653   17.8786 
 C                     5.36648   24.3755   17.7597 
 H                     6.44595   24.5781   17.7847 
 H                     4.94291   24.7702   16.826 
 H                     4.8845    24.8639   18.6122 
 

 GradGradGradGradGradGradGradGradGradGradGradGradGradGradGradGradGradGrad
 Berny optimization.
 Initialization pass.
                           ----------------------------
                           !    Initial Parameters    !
                           ! (Angstroms and Degrees)  !
 --------------------------                            --------------------------
 ! Name  Definition              Value          Derivative Info.                !
 --------------------------------------------------------------------------------
 ! R1    R(1,2)                  1.6276         estimate D2E/DX2                !
 ! R2    R(1,4)                  1.5024         estimate D2E/DX2                !
 ! R3    R(1,10)                 1.5025         estimate D2E/DX2                !
 ! R4    R(1,71)                 1.5309         estimate D2E/DX2                !
 ! R5    R(2,13)                 1.496          estimate D2E/DX2                !
 ! R6    R(2,20)                 1.4965         estimate D2E/DX2                !
 ! R7    R(2,71)                 1.5335         estimate D2E/DX2                !
 ! R8    R(3,4)                  1.4079         estimate D2E/DX2                !
 ! R9    R(3,8)                  1.4517         estimate D2E/DX2                !
 ! R10   R(3,19)                 1.4718         estimate D2E/DX2                !
 ! R11   R(4,5)                  1.4474         estimate D2E/DX2                !
 ! R12   R(5,6)                  1.4173         estimate D2E/DX2                !
 ! R13   R(5,9)                  1.4521         estimate D2E/DX2                !
 ! R14   R(6,7)                  1.4443         estimate D2E/DX2                !
 ! R15   R(6,22)                 1.4541         estimate D2E/DX2                !
 ! R16   R(7,8)                  1.4084         estimate D2E/DX2                !
 ! R17   R(7,39)                 1.456          estimate D2E/DX2                !
 ! R18   R(8,21)                 1.4513         estimate D2E/DX2                !
 ! R19   R(9,10)                 1.4466         estimate D2E/DX2                !
 ! R20   R(9,24)                 1.4175         estimate D2E/DX2                !
 ! R21   R(10,11)                1.4069         estimate D2E/DX2                !
 ! R22   R(11,12)                1.4707         estimate D2E/DX2                !
 ! R23   R(11,26)                1.4515         estimate D2E/DX2                !
 ! R24   R(12,13)                1.3993         estimate D2E/DX2                !
 ! R25   R(12,28)                1.4536         estimate D2E/DX2                !
 ! R26   R(13,14)                1.4446         estimate D2E/DX2                !
 ! R27   R(14,15)                1.4384         estimate D2E/DX2                !
 ! R28   R(14,30)                1.4338         estimate D2E/DX2                !
 ! R29   R(15,16)                1.434          estimate D2E/DX2                !
 ! R30   R(15,20)                1.446          estimate D2E/DX2                !
 ! R31   R(16,17)                1.4676         estimate D2E/DX2                !
 ! R32   R(16,32)                1.4324         estimate D2E/DX2                !
 ! R33   R(17,18)                1.4335         estimate D2E/DX2                !
 ! R34   R(17,35)                1.4337         estimate D2E/DX2                !
 ! R35   R(18,19)                1.4537         estimate D2E/DX2                !
 ! R36   R(18,21)                1.4392         estimate D2E/DX2                !
 ! R37   R(19,20)                1.4001         estimate D2E/DX2                !
 ! R38   R(21,37)                1.4343         estimate D2E/DX2                !
 ! R39   R(22,23)                1.4055         estimate D2E/DX2                !
 ! R40   R(22,40)                1.4541         estimate D2E/DX2                !
 ! R41   R(23,24)                1.4539         estimate D2E/DX2                !
 ! R42   R(23,43)                1.4541         estimate D2E/DX2                !
 ! R43   R(24,25)                1.4441         estimate D2E/DX2                !
 ! R44   R(25,26)                1.4085         estimate D2E/DX2                !
 ! R45   R(25,44)                1.4563         estimate D2E/DX2                !
 ! R46   R(26,27)                1.4518         estimate D2E/DX2                !
 ! R47   R(27,28)                1.4394         estimate D2E/DX2                !
 ! R48   R(27,46)                1.4338         estimate D2E/DX2                !
 ! R49   R(28,29)                1.4333         estimate D2E/DX2                !
 ! R50   R(29,30)                1.4678         estimate D2E/DX2                !
 ! R51   R(29,51)                1.4338         estimate D2E/DX2                !
 ! R52   R(30,31)                1.4318         estimate D2E/DX2                !
 ! R53   R(31,32)                1.4409         estimate D2E/DX2                !
 ! R54   R(31,53)                1.4533         estimate D2E/DX2                !
 ! R55   R(32,33)                1.453          estimate D2E/DX2                !
 ! R56   R(33,34)                1.4071         estimate D2E/DX2                !
 ! R57   R(33,54)                1.455          estimate D2E/DX2                !
 ! R58   R(34,35)                1.4543         estimate D2E/DX2                !
 ! R59   R(34,59)                1.454          estimate D2E/DX2                !
 ! R60   R(35,36)                1.4403         estimate D2E/DX2                !
 ! R61   R(36,37)                1.4331         estimate D2E/DX2                !
 ! R62   R(36,60)                1.4551         estimate D2E/DX2                !
 ! R63   R(37,38)                1.4754         estimate D2E/DX2                !
 ! R64   R(38,39)                1.4321         estimate D2E/DX2                !
 ! R65   R(38,62)                1.4336         estimate D2E/DX2                !
 ! R66   R(39,40)                1.4406         estimate D2E/DX2                !
 ! R67   R(40,41)                1.4344         estimate D2E/DX2                !
 ! R68   R(41,42)                1.476          estimate D2E/DX2                !
 ! R69   R(41,63)                1.4325         estimate D2E/DX2                !
 ! R70   R(42,43)                1.4344         estimate D2E/DX2                !
 ! R71   R(42,70)                1.4325         estimate D2E/DX2                !
 ! R72   R(43,44)                1.4405         estimate D2E/DX2                !
 ! R73   R(44,45)                1.4323         estimate D2E/DX2                !
 ! R74   R(45,46)                1.4755         estimate D2E/DX2                !
 ! R75   R(45,50)                1.4336         estimate D2E/DX2                !
 ! R76   R(46,47)                1.4332         estimate D2E/DX2                !
 ! R77   R(47,48)                1.4548         estimate D2E/DX2                !
 ! R78   R(47,51)                1.4403         estimate D2E/DX2                !
 ! R79   R(48,49)                1.4063         estimate D2E/DX2                !
 ! R80   R(48,57)                1.4542         estimate D2E/DX2                !
 ! R81   R(49,50)                1.455          estimate D2E/DX2                !
 ! R82   R(49,66)                1.4532         estimate D2E/DX2                !
 ! R83   R(50,70)                1.4403         estimate D2E/DX2                !
 ! R84   R(51,52)                1.4542         estimate D2E/DX2                !
 ! R85   R(52,53)                1.4072         estimate D2E/DX2                !
 ! R86   R(52,57)                1.4539         estimate D2E/DX2                !
 ! R87   R(53,54)                1.4548         estimate D2E/DX2                !
 ! R88   R(54,55)                1.4135         estimate D2E/DX2                !
 ! R89   R(55,56)                1.4582         estimate D2E/DX2                !
 ! R90   R(55,58)                1.4582         estimate D2E/DX2                !
 ! R91   R(56,57)                1.4146         estimate D2E/DX2                !
 ! R92   R(56,67)                1.4576         estimate D2E/DX2                !
 ! R93   R(58,59)                1.4146         estimate D2E/DX2                !
 ! R94   R(58,68)                1.4576         estimate D2E/DX2                !
 ! R95   R(59,60)                1.4541         estimate D2E/DX2                !
 ! R96   R(60,61)                1.4062         estimate D2E/DX2                !
 ! R97   R(61,62)                1.455          estimate D2E/DX2                !
 ! R98   R(61,69)                1.4534         estimate D2E/DX2                !
 ! R99   R(62,63)                1.4403         estimate D2E/DX2                !
 ! R100  R(63,64)                1.4563         estimate D2E/DX2                !
 ! R101  R(64,65)                1.4057         estimate D2E/DX2                !
 ! R102  R(64,69)                1.4533         estimate D2E/DX2                !
 ! R103  R(65,66)                1.4535         estimate D2E/DX2                !
 ! R104  R(65,70)                1.4563         estimate D2E/DX2                !
 ! R105  R(66,67)                1.4155         estimate D2E/DX2                !
 ! R106  R(67,68)                1.4563         estimate D2E/DX2                !
 ! R107  R(68,69)                1.4155         estimate D2E/DX2                !
 ! R108  R(71,72)                1.5392         estimate D2E/DX2                !
 ! R109  R(71,83)                1.5618         estimate D2E/DX2                !
 ! R110  R(72,73)                1.4082         estimate D2E/DX2                !
 ! R111  R(72,81)                1.408          estimate D2E/DX2                !
 ! R112  R(73,74)                1.0907         estimate D2E/DX2                !
 ! R113  R(73,75)                1.3979         estimate D2E/DX2                !
 ! R114  R(75,76)                1.0896         estimate D2E/DX2                !
 ! R115  R(75,77)                1.399          estimate D2E/DX2                !
 ! R116  R(77,78)                1.0894         estimate D2E/DX2                !
 ! R117  R(77,79)                1.3986         estimate D2E/DX2                !
 ! R118  R(79,80)                1.0894         estimate D2E/DX2                !
 ! R119  R(79,81)                1.398          estimate D2E/DX2                !
 ! R120  R(81,82)                1.0904         estimate D2E/DX2                !
 ! R121  R(83,84)                1.0993         estimate D2E/DX2                !
 ! R122  R(83,85)                1.097          estimate D2E/DX2                !
 ! R123  R(83,86)                1.5485         estimate D2E/DX2                !
 ! R124  R(86,87)                1.097          estimate D2E/DX2                !
 ! R125  R(86,88)                1.0973         estimate D2E/DX2                !
 ! R126  R(86,89)                1.5455         estimate D2E/DX2                !
 ! R127  R(89,90)                1.1            estimate D2E/DX2                !
 ! R128  R(89,91)                1.0992         estimate D2E/DX2                !
 ! R129  R(89,92)                1.5315         estimate D2E/DX2                !
 ! R130  R(92,93)                1.2245         estimate D2E/DX2                !
 ! R131  R(92,94)                1.3683         estimate D2E/DX2                !
 ! R132  R(94,95)                1.4383         estimate D2E/DX2                !
 ! R133  R(95,96)                1.0986         estimate D2E/DX2                !
 ! R134  R(95,97)                1.0986         estimate D2E/DX2                !
 ! R135  R(95,98)                1.0943         estimate D2E/DX2                !
 ! A1    A(2,1,4)              115.2851         estimate D2E/DX2                !
 ! A2    A(2,1,10)             115.2516         estimate D2E/DX2                !
 ! A3    A(4,1,10)             104.4088         estimate D2E/DX2                !
 ! A4    A(4,1,71)             127.4839         estimate D2E/DX2                !
 ! A5    A(10,1,71)            126.1323         estimate D2E/DX2                !
 ! A6    A(1,2,13)             115.8567         estimate D2E/DX2                !
 ! A7    A(1,2,20)             116.0154         estimate D2E/DX2                !
 ! A8    A(13,2,20)            103.9721         estimate D2E/DX2                !
 ! A9    A(13,2,71)            126.2343         estimate D2E/DX2                !
 ! A10   A(20,2,71)            127.4848         estimate D2E/DX2                !
 ! A11   A(4,3,8)              120.1584         estimate D2E/DX2                !
 ! A12   A(4,3,19)             121.3676         estimate D2E/DX2                !
 ! A13   A(8,3,19)             106.6896         estimate D2E/DX2                !
 ! A14   A(1,4,3)              122.7029         estimate D2E/DX2                !
 ! A15   A(1,4,5)              108.5154         estimate D2E/DX2                !
 ! A16   A(3,4,5)              119.0285         estimate D2E/DX2                !
 ! A17   A(4,5,6)              120.8807         estimate D2E/DX2                !
 ! A18   A(4,5,9)              108.6097         estimate D2E/DX2                !
 ! A19   A(6,5,9)              119.7388         estimate D2E/DX2                !
 ! A20   A(5,6,7)              119.6611         estimate D2E/DX2                !
 ! A21   A(5,6,22)             120.2699         estimate D2E/DX2                !
 ! A22   A(7,6,22)             107.2331         estimate D2E/DX2                !
 ! A23   A(6,7,8)              119.5541         estimate D2E/DX2                !
 ! A24   A(6,7,39)             108.5684         estimate D2E/DX2                !
 ! A25   A(8,7,39)             119.8138         estimate D2E/DX2                !
 ! A26   A(3,8,7)              120.5876         estimate D2E/DX2                !
 ! A27   A(3,8,21)             108.9944         estimate D2E/DX2                !
 ! A28   A(7,8,21)             119.5509         estimate D2E/DX2                !
 ! A29   A(5,9,10)             108.558          estimate D2E/DX2                !
 ! A30   A(5,9,24)             119.7598         estimate D2E/DX2                !
 ! A31   A(10,9,24)            120.8502         estimate D2E/DX2                !
 ! A32   A(1,10,9)             108.5736         estimate D2E/DX2                !
 ! A33   A(1,10,11)            122.7836         estimate D2E/DX2                !
 ! A34   A(9,10,11)            119.1613         estimate D2E/DX2                !
 ! A35   A(10,11,12)           121.2834         estimate D2E/DX2                !
 ! A36   A(10,11,26)           120.0745         estimate D2E/DX2                !
 ! A37   A(12,11,26)           106.6818         estimate D2E/DX2                !
 ! A38   A(11,12,13)           120.9562         estimate D2E/DX2                !
 ! A39   A(11,12,28)           108.013          estimate D2E/DX2                !
 ! A40   A(13,12,28)           119.5813         estimate D2E/DX2                !
 ! A41   A(2,13,12)            123.1012         estimate D2E/DX2                !
 ! A42   A(2,13,14)            108.8372         estimate D2E/DX2                !
 ! A43   A(12,13,14)           119.1575         estimate D2E/DX2                !
 ! A44   A(13,14,15)           108.5152         estimate D2E/DX2                !
 ! A45   A(13,14,30)           122.2983         estimate D2E/DX2                !
 ! A46   A(15,14,30)           121.3773         estimate D2E/DX2                !
 ! A47   A(14,15,16)           121.2087         estimate D2E/DX2                !
 ! A48   A(14,15,20)           108.571          estimate D2E/DX2                !
 ! A49   A(16,15,20)           122.3998         estimate D2E/DX2                !
 ! A50   A(15,16,17)           118.2099         estimate D2E/DX2                !
 ! A51   A(15,16,32)           116.1999         estimate D2E/DX2                !
 ! A52   A(17,16,32)           118.9565         estimate D2E/DX2                !
 ! A53   A(16,17,18)           118.0995         estimate D2E/DX2                !
 ! A54   A(16,17,35)           118.5929         estimate D2E/DX2                !
 ! A55   A(18,17,35)           116.3159         estimate D2E/DX2                !
 ! A56   A(17,18,19)           121.9537         estimate D2E/DX2                !
 ! A57   A(17,18,21)           121.0511         estimate D2E/DX2                !
 ! A58   A(19,18,21)           108.4558         estimate D2E/DX2                !
 ! A59   A(3,19,18)            107.9552         estimate D2E/DX2                !
 ! A60   A(3,19,20)            120.9995         estimate D2E/DX2                !
 ! A61   A(18,19,20)           119.7131         estimate D2E/DX2                !
 ! A62   A(2,20,15)            108.7339         estimate D2E/DX2                !
 ! A63   A(2,20,19)            122.9688         estimate D2E/DX2                !
 ! A64   A(15,20,19)           118.915          estimate D2E/DX2                !
 ! A65   A(8,21,18)            107.8971         estimate D2E/DX2                !
 ! A66   A(8,21,37)            121.6511         estimate D2E/DX2                !
 ! A67   A(18,21,37)           121.6173         estimate D2E/DX2                !
 ! A68   A(6,22,23)            119.9794         estimate D2E/DX2                !
 ! A69   A(6,22,40)            108.4602         estimate D2E/DX2                !
 ! A70   A(23,22,40)           119.7765         estimate D2E/DX2                !
 ! A71   A(22,23,24)           119.9906         estimate D2E/DX2                !
 ! A72   A(22,23,43)           119.7952         estimate D2E/DX2                !
 ! A73   A(24,23,43)           108.4546         estimate D2E/DX2                !
 ! A74   A(9,24,23)            120.2538         estimate D2E/DX2                !
 ! A75   A(9,24,25)            119.6224         estimate D2E/DX2                !
 ! A76   A(23,24,25)           107.2718         estimate D2E/DX2                !
 ! A77   A(24,25,26)           119.5648         estimate D2E/DX2                !
 ! A78   A(24,25,44)           108.5239         estimate D2E/DX2                !
 ! A79   A(26,25,44)           119.842          estimate D2E/DX2                !
 ! A80   A(11,26,25)           120.6143         estimate D2E/DX2                !
 ! A81   A(11,26,27)           109.0061         estimate D2E/DX2                !
 ! A82   A(25,26,27)           119.485          estimate D2E/DX2                !
 ! A83   A(26,27,28)           107.8607         estimate D2E/DX2                !
 ! A84   A(26,27,46)           121.7005         estimate D2E/DX2                !
 ! A85   A(28,27,46)           121.5893         estimate D2E/DX2                !
 ! A86   A(12,28,27)           108.4301         estimate D2E/DX2                !
 ! A87   A(12,28,29)           121.953          estimate D2E/DX2                !
 ! A88   A(27,28,29)           121.0571         estimate D2E/DX2                !
 ! A89   A(28,29,30)           118.1347         estimate D2E/DX2                !
 ! A90   A(28,29,51)           116.3315         estimate D2E/DX2                !
 ! A91   A(30,29,51)           118.5618         estimate D2E/DX2                !
 ! A92   A(14,30,29)           118.208          estimate D2E/DX2                !
 ! A93   A(14,30,31)           116.1674         estimate D2E/DX2                !
 ! A94   A(29,30,31)           119.0045         estimate D2E/DX2                !
 ! A95   A(30,31,32)           121.2623         estimate D2E/DX2                !
 ! A96   A(30,31,53)           121.3723         estimate D2E/DX2                !
 ! A97   A(32,31,53)           108.0304         estimate D2E/DX2                !
 ! A98   A(16,32,31)           121.2964         estimate D2E/DX2                !
 ! A99   A(16,32,33)           121.3894         estimate D2E/DX2                !
 ! A100  A(31,32,33)           108.0033         estimate D2E/DX2                !
 ! A101  A(32,33,34)           119.5925         estimate D2E/DX2                !
 ! A102  A(32,33,54)           108.4674         estimate D2E/DX2                !
 ! A103  A(34,33,54)           120.0356         estimate D2E/DX2                !
 ! A104  A(33,34,35)           119.7924         estimate D2E/DX2                !
 ! A105  A(33,34,59)           120.0269         estimate D2E/DX2                !
 ! A106  A(35,34,59)           108.5191         estimate D2E/DX2                !
 ! A107  A(17,35,34)           121.3804         estimate D2E/DX2                !
 ! A108  A(17,35,36)           121.3334         estimate D2E/DX2                !
 ! A109  A(34,35,36)           108.0031         estimate D2E/DX2                !
 ! A110  A(35,36,37)           121.3053         estimate D2E/DX2                !
 ! A111  A(35,36,60)           107.9346         estimate D2E/DX2                !
 ! A112  A(37,36,60)           121.5042         estimate D2E/DX2                !
 ! A113  A(21,37,36)           116.0454         estimate D2E/DX2                !
 ! A114  A(21,37,38)           118.6184         estimate D2E/DX2                !
 ! A115  A(36,37,38)           118.6169         estimate D2E/DX2                !
 ! A116  A(37,38,39)           118.6114         estimate D2E/DX2                !
 ! A117  A(37,38,62)           118.6776         estimate D2E/DX2                !
 ! A118  A(39,38,62)           115.9353         estimate D2E/DX2                !
 ! A119  A(7,39,38)            121.4269         estimate D2E/DX2                !
 ! A120  A(7,39,40)            107.9368         estimate D2E/DX2                !
 ! A121  A(38,39,40)           121.4314         estimate D2E/DX2                !
 ! A122  A(22,40,39)           107.7954         estimate D2E/DX2                !
 ! A123  A(22,40,41)           121.4545         estimate D2E/DX2                !
 ! A124  A(39,40,41)           121.3694         estimate D2E/DX2                !
 ! A125  A(40,41,42)           118.617          estimate D2E/DX2                !
 ! A126  A(40,41,63)           115.9308         estimate D2E/DX2                !
 ! A127  A(42,41,63)           118.636          estimate D2E/DX2                !
 ! A128  A(41,42,43)           118.6216         estimate D2E/DX2                !
 ! A129  A(41,42,70)           118.6339         estimate D2E/DX2                !
 ! A130  A(43,42,70)           115.9268         estimate D2E/DX2                !
 ! A131  A(23,43,42)           121.441          estimate D2E/DX2                !
 ! A132  A(23,43,44)           107.7776         estimate D2E/DX2                !
 ! A133  A(42,43,44)           121.3786         estimate D2E/DX2                !
 ! A134  A(25,44,43)           107.9656         estimate D2E/DX2                !
 ! A135  A(25,44,45)           121.4289         estimate D2E/DX2                !
 ! A136  A(43,44,45)           121.4272         estimate D2E/DX2                !
 ! A137  A(44,45,46)           118.5861         estimate D2E/DX2                !
 ! A138  A(44,45,50)           115.9285         estimate D2E/DX2                !
 ! A139  A(46,45,50)           118.6937         estimate D2E/DX2                !
 ! A140  A(27,46,45)           118.6284         estimate D2E/DX2                !
 ! A141  A(27,46,47)           116.0716         estimate D2E/DX2                !
 ! A142  A(45,46,47)           118.5917         estimate D2E/DX2                !
 ! A143  A(46,47,48)           121.5177         estimate D2E/DX2                !
 ! A144  A(46,47,51)           121.2996         estimate D2E/DX2                !
 ! A145  A(48,47,51)           107.9231         estimate D2E/DX2                !
 ! A146  A(47,48,49)           119.739          estimate D2E/DX2                !
 ! A147  A(47,48,57)           108.5359         estimate D2E/DX2                !
 ! A148  A(49,48,57)           119.9859         estimate D2E/DX2                !
 ! A149  A(48,49,50)           119.7368         estimate D2E/DX2                !
 ! A150  A(48,49,66)           120.103          estimate D2E/DX2                !
 ! A151  A(50,49,66)           108.5501         estimate D2E/DX2                !
 ! A152  A(45,50,49)           121.4325         estimate D2E/DX2                !
 ! A153  A(45,50,70)           121.4416         estimate D2E/DX2                !
 ! A154  A(49,50,70)           107.9946         estimate D2E/DX2                !
 ! A155  A(29,51,47)           121.3061         estimate D2E/DX2                !
 ! A156  A(29,51,52)           121.3794         estimate D2E/DX2                !
 ! A157  A(47,51,52)           108.0152         estimate D2E/DX2                !
 ! A158  A(51,52,53)           119.8111         estimate D2E/DX2                !
 ! A159  A(51,52,57)           108.5161         estimate D2E/DX2                !
 ! A160  A(53,52,57)           120.0236         estimate D2E/DX2                !
 ! A161  A(31,53,52)           119.5802         estimate D2E/DX2                !
 ! A162  A(31,53,54)           108.4461         estimate D2E/DX2                !
 ! A163  A(52,53,54)           120.0428         estimate D2E/DX2                !
 ! A164  A(33,54,53)           107.0492         estimate D2E/DX2                !
 ! A165  A(33,54,55)           120.186          estimate D2E/DX2                !
 ! A166  A(53,54,55)           120.1803         estimate D2E/DX2                !
 ! A167  A(54,55,56)           119.7833         estimate D2E/DX2                !
 ! A168  A(54,55,58)           119.7794         estimate D2E/DX2                !
 ! A169  A(56,55,58)           107.9488         estimate D2E/DX2                !
 ! A170  A(55,56,57)           119.784          estimate D2E/DX2                !
 ! A171  A(55,56,67)           107.9912         estimate D2E/DX2                !
 ! A172  A(57,56,67)           119.8026         estimate D2E/DX2                !
 ! A173  A(48,57,52)           107.0042         estimate D2E/DX2                !
 ! A174  A(48,57,56)           120.2051         estimate D2E/DX2                !
 ! A175  A(52,57,56)           120.1846         estimate D2E/DX2                !
 ! A176  A(55,58,59)           119.7898         estimate D2E/DX2                !
 ! A177  A(55,58,68)           107.9987         estimate D2E/DX2                !
 ! A178  A(59,58,68)           119.7925         estimate D2E/DX2                !
 ! A179  A(34,59,58)           120.181          estimate D2E/DX2                !
 ! A180  A(34,59,60)           107.0111         estimate D2E/DX2                !
 ! A181  A(58,59,60)           120.2116         estimate D2E/DX2                !
 ! A182  A(36,60,59)           108.5268         estimate D2E/DX2                !
 ! A183  A(36,60,61)           119.7313         estimate D2E/DX2                !
 ! A184  A(59,60,61)           119.9926         estimate D2E/DX2                !
 ! A185  A(60,61,62)           119.7506         estimate D2E/DX2                !
 ! A186  A(60,61,69)           120.1009         estimate D2E/DX2                !
 ! A187  A(62,61,69)           108.5405         estimate D2E/DX2                !
 ! A188  A(38,62,61)           121.4317         estimate D2E/DX2                !
 ! A189  A(38,62,63)           121.4261         estimate D2E/DX2                !
 ! A190  A(61,62,63)           107.9921         estimate D2E/DX2                !
 ! A191  A(41,63,62)           121.3971         estimate D2E/DX2                !
 ! A192  A(41,63,64)           121.4981         estimate D2E/DX2                !
 ! A193  A(62,63,64)           107.8861         estimate D2E/DX2                !
 ! A194  A(63,64,65)           119.7009         estimate D2E/DX2                !
 ! A195  A(63,64,69)           108.5487         estimate D2E/DX2                !
 ! A196  A(65,64,69)           120.0385         estimate D2E/DX2                !
 ! A197  A(64,65,66)           120.0311         estimate D2E/DX2                !
 ! A198  A(64,65,70)           119.7113         estimate D2E/DX2                !
 ! A199  A(66,65,70)           108.5578         estimate D2E/DX2                !
 ! A200  A(49,66,65)           107.0162         estimate D2E/DX2                !
 ! A201  A(49,66,67)           120.2046         estimate D2E/DX2                !
 ! A202  A(65,66,67)           120.225          estimate D2E/DX2                !
 ! A203  A(56,67,66)           119.6969         estimate D2E/DX2                !
 ! A204  A(56,67,68)           108.0354         estimate D2E/DX2                !
 ! A205  A(66,67,68)           119.74           estimate D2E/DX2                !
 ! A206  A(58,68,67)           108.0257         estimate D2E/DX2                !
 ! A207  A(58,68,69)           119.7052         estimate D2E/DX2                !
 ! A208  A(67,68,69)           119.7376         estimate D2E/DX2                !
 ! A209  A(61,69,64)           107.0254         estimate D2E/DX2                !
 ! A210  A(61,69,68)           120.1954         estimate D2E/DX2                !
 ! A211  A(64,69,68)           120.2276         estimate D2E/DX2                !
 ! A212  A(42,70,50)           121.389          estimate D2E/DX2                !
 ! A213  A(42,70,65)           121.4968         estimate D2E/DX2                !
 ! A214  A(50,70,65)           107.874          estimate D2E/DX2                !
 ! A215  A(1,71,72)            117.1783         estimate D2E/DX2                !
 ! A216  A(1,71,83)            118.013          estimate D2E/DX2                !
 ! A217  A(2,71,72)            117.8941         estimate D2E/DX2                !
 ! A218  A(2,71,83)            119.0114         estimate D2E/DX2                !
 ! A219  A(72,71,83)           112.6244         estimate D2E/DX2                !
 ! A220  A(71,72,73)           120.0677         estimate D2E/DX2                !
 ! A221  A(71,72,81)           121.2915         estimate D2E/DX2                !
 ! A222  A(73,72,81)           118.5979         estimate D2E/DX2                !
 ! A223  A(72,73,74)           119.8393         estimate D2E/DX2                !
 ! A224  A(72,73,75)           120.6596         estimate D2E/DX2                !
 ! A225  A(74,73,75)           119.499          estimate D2E/DX2                !
 ! A226  A(73,75,76)           119.696          estimate D2E/DX2                !
 ! A227  A(73,75,77)           120.2163         estimate D2E/DX2                !
 ! A228  A(76,75,77)           120.0877         estimate D2E/DX2                !
 ! A229  A(75,77,78)           120.1682         estimate D2E/DX2                !
 ! A230  A(75,77,79)           119.631          estimate D2E/DX2                !
 ! A231  A(78,77,79)           120.2007         estimate D2E/DX2                !
 ! A232  A(77,79,80)           120.071          estimate D2E/DX2                !
 ! A233  A(77,79,81)           120.2845         estimate D2E/DX2                !
 ! A234  A(80,79,81)           119.6445         estimate D2E/DX2                !
 ! A235  A(72,81,79)           120.6005         estimate D2E/DX2                !
 ! A236  A(72,81,82)           120.0828         estimate D2E/DX2                !
 ! A237  A(79,81,82)           119.3165         estimate D2E/DX2                !
 ! A238  A(71,83,84)           107.9658         estimate D2E/DX2                !
 ! A239  A(71,83,85)           110.5238         estimate D2E/DX2                !
 ! A240  A(71,83,86)           113.8709         estimate D2E/DX2                !
 ! A241  A(84,83,85)           105.3165         estimate D2E/DX2                !
 ! A242  A(84,83,86)           109.67           estimate D2E/DX2                !
 ! A243  A(85,83,86)           109.1375         estimate D2E/DX2                !
 ! A244  A(83,86,87)           109.994          estimate D2E/DX2                !
 ! A245  A(83,86,88)           109.7104         estimate D2E/DX2                !
 ! A246  A(83,86,89)           112.6871         estimate D2E/DX2                !
 ! A247  A(87,86,88)           106.0192         estimate D2E/DX2                !
 ! A248  A(87,86,89)           108.9683         estimate D2E/DX2                !
 ! A249  A(88,86,89)           109.2385         estimate D2E/DX2                !
 ! A250  A(86,89,90)           110.417          estimate D2E/DX2                !
 ! A251  A(86,89,91)           110.5725         estimate D2E/DX2                !
 ! A252  A(86,89,92)           113.2314         estimate D2E/DX2                !
 ! A253  A(90,89,91)           105.2834         estimate D2E/DX2                !
 ! A254  A(90,89,92)           108.3904         estimate D2E/DX2                !
 ! A255  A(91,89,92)           108.6101         estimate D2E/DX2                !
 ! A256  A(89,92,93)           125.7557         estimate D2E/DX2                !
 ! A257  A(89,92,94)           112.2965         estimate D2E/DX2                !
 ! A258  A(93,92,94)           121.9478         estimate D2E/DX2                !
 ! A259  A(92,94,95)           117.0806         estimate D2E/DX2                !
 ! A260  A(94,95,96)           110.7501         estimate D2E/DX2                !
 ! A261  A(94,95,97)           110.7136         estimate D2E/DX2                !
 ! A262  A(94,95,98)           107.1321         estimate D2E/DX2                !
 ! A263  A(96,95,97)           109.385          estimate D2E/DX2                !
 ! A264  A(96,95,98)           109.4343         estimate D2E/DX2                !
 ! A265  A(97,95,98)           109.385          estimate D2E/DX2                !
 ! D1    D(4,1,2,13)           121.9942         estimate D2E/DX2                !
 ! D2    D(4,1,2,20)            -0.3564         estimate D2E/DX2                !
 ! D3    D(10,1,2,13)            0.1854         estimate D2E/DX2                !
 ! D4    D(10,1,2,20)         -122.1652         estimate D2E/DX2                !
 ! D5    D(2,1,4,3)              6.7904         estimate D2E/DX2                !
 ! D6    D(2,1,4,5)           -138.6114         estimate D2E/DX2                !
 ! D7    D(10,1,4,3)           134.2701         estimate D2E/DX2                !
 ! D8    D(10,1,4,5)           -11.1317         estimate D2E/DX2                !
 ! D9    D(71,1,4,3)           -61.0985         estimate D2E/DX2                !
 ! D10   D(71,1,4,5)           153.4997         estimate D2E/DX2                !
 ! D11   D(2,1,10,9)           138.7175         estimate D2E/DX2                !
 ! D12   D(2,1,10,11)           -7.1608         estimate D2E/DX2                !
 ! D13   D(4,1,10,9)            11.2172         estimate D2E/DX2                !
 ! D14   D(4,1,10,11)         -134.6611         estimate D2E/DX2                !
 ! D15   D(71,1,10,9)         -153.6896         estimate D2E/DX2                !
 ! D16   D(71,1,10,11)          60.4321         estimate D2E/DX2                !
 ! D17   D(4,1,71,72)         -151.4415         estimate D2E/DX2                !
 ! D18   D(4,1,71,83)          -11.7141         estimate D2E/DX2                !
 ! D19   D(10,1,71,72)          10.0272         estimate D2E/DX2                !
 ! D20   D(10,1,71,83)         149.7546         estimate D2E/DX2                !
 ! D21   D(1,2,13,12)            6.9313         estimate D2E/DX2                !
 ! D22   D(1,2,13,14)         -139.885          estimate D2E/DX2                !
 ! D23   D(20,2,13,12)         135.4561         estimate D2E/DX2                !
 ! D24   D(20,2,13,14)         -11.3603         estimate D2E/DX2                !
 ! D25   D(71,2,13,12)         -60.8468         estimate D2E/DX2                !
 ! D26   D(71,2,13,14)         152.3368         estimate D2E/DX2                !
 ! D27   D(1,2,20,15)          139.6791         estimate D2E/DX2                !
 ! D28   D(1,2,20,19)           -6.2698         estimate D2E/DX2                !
 ! D29   D(13,2,20,15)          11.2514         estimate D2E/DX2                !
 ! D30   D(13,2,20,19)        -134.6974         estimate D2E/DX2                !
 ! D31   D(71,2,20,15)        -152.1689         estimate D2E/DX2                !
 ! D32   D(71,2,20,19)          61.8822         estimate D2E/DX2                !
 ! D33   D(13,2,71,72)          -8.2884         estimate D2E/DX2                !
 ! D34   D(13,2,71,83)        -150.5924         estimate D2E/DX2                !
 ! D35   D(20,2,71,72)         151.6338         estimate D2E/DX2                !
 ! D36   D(20,2,71,83)           9.3298         estimate D2E/DX2                !
 ! D37   D(8,3,4,1)           -144.9982         estimate D2E/DX2                !
 ! D38   D(8,3,4,5)             -3.0069         estimate D2E/DX2                !
 ! D39   D(19,3,4,1)            -6.9917         estimate D2E/DX2                !
 ! D40   D(19,3,4,5)           134.9996         estimate D2E/DX2                !
 ! D41   D(4,3,8,7)              0.2137         estimate D2E/DX2                !
 ! D42   D(4,3,8,21)           144.2489         estimate D2E/DX2                !
 ! D43   D(19,3,8,7)          -143.1749         estimate D2E/DX2                !
 ! D44   D(19,3,8,21)            0.8603         estimate D2E/DX2                !
 ! D45   D(4,3,19,18)         -143.3675         estimate D2E/DX2                !
 ! D46   D(4,3,19,20)            0.0078         estimate D2E/DX2                !
 ! D47   D(8,3,19,18)           -0.519          estimate D2E/DX2                !
 ! D48   D(8,3,19,20)          142.8564         estimate D2E/DX2                !
 ! D49   D(1,4,5,6)            151.3133         estimate D2E/DX2                !
 ! D50   D(1,4,5,9)              7.096          estimate D2E/DX2                !
 ! D51   D(3,4,5,6)              4.4375         estimate D2E/DX2                !
 ! D52   D(3,4,5,9)           -139.7798         estimate D2E/DX2                !
 ! D53   D(4,5,6,7)             -3.0033         estimate D2E/DX2                !
 ! D54   D(4,5,6,22)          -139.6501         estimate D2E/DX2                !
 ! D55   D(9,5,6,7)            137.3395         estimate D2E/DX2                !
 ! D56   D(9,5,6,22)             0.6927         estimate D2E/DX2                !
 ! D57   D(4,5,9,10)             0.1257         estimate D2E/DX2                !
 ! D58   D(4,5,9,24)           144.7189         estimate D2E/DX2                !
 ! D59   D(6,5,9,10)          -144.5686         estimate D2E/DX2                !
 ! D60   D(6,5,9,24)             0.0246         estimate D2E/DX2                !
 ! D61   D(5,6,7,8)              0.1474         estimate D2E/DX2                !
 ! D62   D(5,6,7,39)          -142.3577         estimate D2E/DX2                !
 ! D63   D(22,6,7,8)           141.7754         estimate D2E/DX2                !
 ! D64   D(22,6,7,39)           -0.7297         estimate D2E/DX2                !
 ! D65   D(5,6,22,23)           -0.697          estimate D2E/DX2                !
 ! D66   D(5,6,22,40)          142.1476         estimate D2E/DX2                !
 ! D67   D(7,6,22,23)         -142.0456         estimate D2E/DX2                !
 ! D68   D(7,6,22,40)            0.7989         estimate D2E/DX2                !
 ! D69   D(6,7,8,3)              1.2518         estimate D2E/DX2                !
 ! D70   D(6,7,8,21)          -139.0794         estimate D2E/DX2                !
 ! D71   D(39,7,8,3)           139.5677         estimate D2E/DX2                !
 ! D72   D(39,7,8,21)           -0.7636         estimate D2E/DX2                !
 ! D73   D(6,7,39,38)          147.5423         estimate D2E/DX2                !
 ! D74   D(6,7,39,40)            0.3872         estimate D2E/DX2                !
 ! D75   D(8,7,39,38)            5.151          estimate D2E/DX2                !
 ! D76   D(8,7,39,40)         -142.0041         estimate D2E/DX2                !
 ! D77   D(3,8,21,18)           -0.8808         estimate D2E/DX2                !
 ! D78   D(3,8,21,37)         -148.6847         estimate D2E/DX2                !
 ! D79   D(7,8,21,18)          143.5865         estimate D2E/DX2                !
 ! D80   D(7,8,21,37)           -4.2174         estimate D2E/DX2                !
 ! D81   D(5,9,10,1)            -7.3003         estimate D2E/DX2                !
 ! D82   D(5,9,10,11)          140.0123         estimate D2E/DX2                !
 ! D83   D(24,9,10,1)         -151.4365         estimate D2E/DX2                !
 ! D84   D(24,9,10,11)          -4.124          estimate D2E/DX2                !
 ! D85   D(5,9,24,23)           -0.7389         estimate D2E/DX2                !
 ! D86   D(5,9,24,25)         -137.3779         estimate D2E/DX2                !
 ! D87   D(10,9,24,23)         139.4862         estimate D2E/DX2                !
 ! D88   D(10,9,24,25)           2.8472         estimate D2E/DX2                !
 ! D89   D(1,10,11,12)           7.4595         estimate D2E/DX2                !
 ! D90   D(1,10,11,26)         145.1916         estimate D2E/DX2                !
 ! D91   D(9,10,11,12)        -135.0294         estimate D2E/DX2                !
 ! D92   D(9,10,11,26)           2.7027         estimate D2E/DX2                !
 ! D93   D(10,11,12,13)          0.0188         estimate D2E/DX2                !
 ! D94   D(10,11,12,28)        143.1839         estimate D2E/DX2                !
 ! D95   D(26,11,12,13)       -142.5635         estimate D2E/DX2                !
 ! D96   D(26,11,12,28)          0.6016         estimate D2E/DX2                !
 ! D97   D(10,11,26,25)         -0.0715         estimate D2E/DX2                !
 ! D98   D(10,11,26,27)       -144.0415         estimate D2E/DX2                !
 ! D99   D(12,11,26,25)        143.0541         estimate D2E/DX2                !
 ! D100  D(12,11,26,27)         -0.9159         estimate D2E/DX2                !
 ! D101  D(11,12,13,2)          -7.3967         estimate D2E/DX2                !
 ! D102  D(11,12,13,14)        136.2207         estimate D2E/DX2                !
 ! D103  D(28,12,13,2)        -146.4332         estimate D2E/DX2                !
 ! D104  D(28,12,13,14)         -2.8158         estimate D2E/DX2                !
 ! D105  D(11,12,28,27)         -0.0651         estimate D2E/DX2                !
 ! D106  D(11,12,28,29)       -148.1399         estimate D2E/DX2                !
 ! D107  D(13,12,28,27)        143.6946         estimate D2E/DX2                !
 ! D108  D(13,12,28,29)         -4.3802         estimate D2E/DX2                !
 ! D109  D(2,13,14,15)           7.4458         estimate D2E/DX2                !
 ! D110  D(2,13,14,30)         156.9081         estimate D2E/DX2                !
 ! D111  D(12,13,14,15)       -140.8841         estimate D2E/DX2                !
 ! D112  D(12,13,14,30)          8.5782         estimate D2E/DX2                !
 ! D113  D(13,14,15,16)        149.6634         estimate D2E/DX2                !
 ! D114  D(13,14,15,20)         -0.1556         estimate D2E/DX2                !
 ! D115  D(30,14,15,16)         -0.1341         estimate D2E/DX2                !
 ! D116  D(30,14,15,20)       -149.9531         estimate D2E/DX2                !
 ! D117  D(13,14,30,29)         -6.9116         estimate D2E/DX2                !
 ! D118  D(13,14,30,31)       -158.1472         estimate D2E/DX2                !
 ! D119  D(15,14,30,29)        138.7323         estimate D2E/DX2                !
 ! D120  D(15,14,30,31)        -12.5034         estimate D2E/DX2                !
 ! D121  D(14,15,16,17)       -138.5232         estimate D2E/DX2                !
 ! D122  D(14,15,16,32)         12.6714         estimate D2E/DX2                !
 ! D123  D(20,15,16,17)          7.1149         estimate D2E/DX2                !
 ! D124  D(20,15,16,32)        158.3095         estimate D2E/DX2                !
 ! D125  D(14,15,20,2)          -7.1868         estimate D2E/DX2                !
 ! D126  D(14,15,20,19)        140.3562         estimate D2E/DX2                !
 ! D127  D(16,15,20,2)        -156.5725         estimate D2E/DX2                !
 ! D128  D(16,15,20,19)         -9.0295         estimate D2E/DX2                !
 ! D129  D(15,16,17,18)          0.3713         estimate D2E/DX2                !
 ! D130  D(15,16,17,35)        150.0703         estimate D2E/DX2                !
 ! D131  D(32,16,17,18)       -150.0182         estimate D2E/DX2                !
 ! D132  D(32,16,17,35)         -0.3192         estimate D2E/DX2                !
 ! D133  D(15,16,32,31)        -12.5857         estimate D2E/DX2                !
 ! D134  D(15,16,32,33)       -155.2066         estimate D2E/DX2                !
 ! D135  D(17,16,32,31)        138.3842         estimate D2E/DX2                !
 ! D136  D(17,16,32,33)         -4.2368         estimate D2E/DX2                !
 ! D137  D(16,17,18,19)         -5.9485         estimate D2E/DX2                !
 ! D138  D(16,17,18,21)        138.2508         estimate D2E/DX2                !
 ! D139  D(35,17,18,19)       -156.3296         estimate D2E/DX2                !
 ! D140  D(35,17,18,21)        -12.1303         estimate D2E/DX2                !
 ! D141  D(16,17,35,34)          4.624          estimate D2E/DX2                !
 ! D142  D(16,17,35,36)       -138.0472         estimate D2E/DX2                !
 ! D143  D(18,17,35,34)        154.8532         estimate D2E/DX2                !
 ! D144  D(18,17,35,36)         12.1821         estimate D2E/DX2                !
 ! D145  D(17,18,19,3)         148.0938         estimate D2E/DX2                !
 ! D146  D(17,18,19,20)          4.164          estimate D2E/DX2                !
 ! D147  D(21,18,19,3)          -0.0143         estimate D2E/DX2                !
 ! D148  D(21,18,19,20)       -143.944          estimate D2E/DX2                !
 ! D149  D(17,18,21,8)        -147.9044         estimate D2E/DX2                !
 ! D150  D(17,18,21,37)         -0.0874         estimate D2E/DX2                !
 ! D151  D(19,18,21,8)           0.5456         estimate D2E/DX2                !
 ! D152  D(19,18,21,37)        148.3626         estimate D2E/DX2                !
 ! D153  D(3,19,20,2)            6.7761         estimate D2E/DX2                !
 ! D154  D(3,19,20,15)        -135.9385         estimate D2E/DX2                !
 ! D155  D(18,19,20,2)         145.9754         estimate D2E/DX2                !
 ! D156  D(18,19,20,15)          3.2608         estimate D2E/DX2                !
 ! D157  D(8,21,37,36)         155.7009         estimate D2E/DX2                !
 ! D158  D(8,21,37,38)           4.7814         estimate D2E/DX2                !
 ! D159  D(18,21,37,36)         12.243          estimate D2E/DX2                !
 ! D160  D(18,21,37,38)       -138.6765         estimate D2E/DX2                !
 ! D161  D(6,22,23,24)          -0.019          estimate D2E/DX2                !
 ! D162  D(6,22,23,43)         138.7124         estimate D2E/DX2                !
 ! D163  D(40,22,23,24)       -138.7155         estimate D2E/DX2                !
 ! D164  D(40,22,23,43)          0.0159         estimate D2E/DX2                !
 ! D165  D(6,22,40,39)          -0.5653         estimate D2E/DX2                !
 ! D166  D(6,22,40,41)        -147.4143         estimate D2E/DX2                !
 ! D167  D(23,22,40,39)        142.3674         estimate D2E/DX2                !
 ! D168  D(23,22,40,41)         -4.4815         estimate D2E/DX2                !
 ! D169  D(22,23,24,9)           0.738          estimate D2E/DX2                !
 ! D170  D(22,23,24,25)        142.0528         estimate D2E/DX2                !
 ! D171  D(43,23,24,9)        -142.1462         estimate D2E/DX2                !
 ! D172  D(43,23,24,25)         -0.8314         estimate D2E/DX2                !
 ! D173  D(22,23,43,42)          4.4582         estimate D2E/DX2                !
 ! D174  D(22,23,43,44)       -142.3592         estimate D2E/DX2                !
 ! D175  D(24,23,43,42)        147.4273         estimate D2E/DX2                !
 ! D176  D(24,23,43,44)          0.6099         estimate D2E/DX2                !
 ! D177  D(9,24,25,26)          -0.1649         estimate D2E/DX2                !
 ! D178  D(9,24,25,44)         142.3418         estimate D2E/DX2                !
 ! D179  D(23,24,25,26)       -141.7694         estimate D2E/DX2                !
 ! D180  D(23,24,25,44)          0.7374         estimate D2E/DX2                !
 ! D181  D(24,25,26,11)         -1.2266         estimate D2E/DX2                !
 ! D182  D(24,25,26,27)        139.0645         estimate D2E/DX2                !
 ! D183  D(44,25,26,11)       -139.5166         estimate D2E/DX2                !
 ! D184  D(44,25,26,27)          0.7744         estimate D2E/DX2                !
 ! D185  D(24,25,44,43)         -0.3671         estimate D2E/DX2                !
 ! D186  D(24,25,44,45)       -147.5641         estimate D2E/DX2                !
 ! D187  D(26,25,44,43)        142.018          estimate D2E/DX2                !
 ! D188  D(26,25,44,45)         -5.1789         estimate D2E/DX2                !
 ! D189  D(11,26,27,28)          0.888          estimate D2E/DX2                !
 ! D190  D(11,26,27,46)        148.6541         estimate D2E/DX2                !
 ! D191  D(25,26,27,28)       -143.5531         estimate D2E/DX2                !
 ! D192  D(25,26,27,46)          4.213          estimate D2E/DX2                !
 ! D193  D(26,27,28,12)         -0.5006         estimate D2E/DX2                !
 ! D194  D(26,27,28,29)        147.9141         estimate D2E/DX2                !
 ! D195  D(46,27,28,12)       -148.3098         estimate D2E/DX2                !
 ! D196  D(46,27,28,29)          0.1049         estimate D2E/DX2                !
 ! D197  D(26,27,46,45)         -4.7669         estimate D2E/DX2                !
 ! D198  D(26,27,46,47)       -155.701          estimate D2E/DX2                !
 ! D199  D(28,27,46,45)        138.6506         estimate D2E/DX2                !
 ! D200  D(28,27,46,47)        -12.2835         estimate D2E/DX2                !
 ! D201  D(12,28,29,30)          5.9034         estimate D2E/DX2                !
 ! D202  D(12,28,29,51)        156.3132         estimate D2E/DX2                !
 ! D203  D(27,28,29,30)       -138.2486         estimate D2E/DX2                !
 ! D204  D(27,28,29,51)         12.1613         estimate D2E/DX2                !
 ! D205  D(28,29,30,14)         -0.3139         estimate D2E/DX2                !
 ! D206  D(28,29,30,31)        150.094          estimate D2E/DX2                !
 ! D207  D(51,29,30,14)       -150.0569         estimate D2E/DX2                !
 ! D208  D(51,29,30,31)          0.3509         estimate D2E/DX2                !
 ! D209  D(28,29,51,47)        -12.2342         estimate D2E/DX2                !
 ! D210  D(28,29,51,52)       -154.8805         estimate D2E/DX2                !
 ! D211  D(30,29,51,47)        138.0445         estimate D2E/DX2                !
 ! D212  D(30,29,51,52)         -4.6018         estimate D2E/DX2                !
 ! D213  D(14,30,31,32)         12.5856         estimate D2E/DX2                !
 ! D214  D(14,30,31,53)        155.1727         estimate D2E/DX2                !
 ! D215  D(29,30,31,32)       -138.4105         estimate D2E/DX2                !
 ! D216  D(29,30,31,53)          4.1767         estimate D2E/DX2                !
 ! D217  D(30,31,32,16)         -0.0528         estimate D2E/DX2                !
 ! D218  D(30,31,32,33)        146.9282         estimate D2E/DX2                !
 ! D219  D(53,31,32,16)       -146.9925         estimate D2E/DX2                !
 ! D220  D(53,31,32,33)         -0.0115         estimate D2E/DX2                !
 ! D221  D(30,31,53,52)         -4.4935         estimate D2E/DX2                !
 ! D222  D(30,31,53,54)       -147.261          estimate D2E/DX2                !
 ! D223  D(32,31,53,52)        142.4026         estimate D2E/DX2                !
 ! D224  D(32,31,53,54)         -0.3648         estimate D2E/DX2                !
 ! D225  D(16,32,33,34)          4.5274         estimate D2E/DX2                !
 ! D226  D(16,32,33,54)        147.3277         estimate D2E/DX2                !
 ! D227  D(31,32,33,34)       -142.4168         estimate D2E/DX2                !
 ! D228  D(31,32,33,54)          0.3835         estimate D2E/DX2                !
 ! D229  D(32,33,34,35)         -0.1883         estimate D2E/DX2                !
 ! D230  D(32,33,34,59)        138.7178         estimate D2E/DX2                !
 ! D231  D(54,33,34,35)       -138.7042         estimate D2E/DX2                !
 ! D232  D(54,33,34,59)          0.202          estimate D2E/DX2                !
 ! D233  D(32,33,54,53)         -0.6022         estimate D2E/DX2                !
 ! D234  D(32,33,54,55)       -142.481          estimate D2E/DX2                !
 ! D235  D(34,33,54,53)        142.0048         estimate D2E/DX2                !
 ! D236  D(34,33,54,55)          0.126          estimate D2E/DX2                !
 ! D237  D(33,34,35,17)         -4.4141         estimate D2E/DX2                !
 ! D238  D(33,34,35,36)        142.5876         estimate D2E/DX2                !
 ! D239  D(59,34,35,17)       -147.5329         estimate D2E/DX2                !
 ! D240  D(59,34,35,36)         -0.5313         estimate D2E/DX2                !
 ! D241  D(33,34,59,58)         -0.3999         estimate D2E/DX2                !
 ! D242  D(33,34,59,60)       -142.2747         estimate D2E/DX2                !
 ! D243  D(35,34,59,58)        142.6176         estimate D2E/DX2                !
 ! D244  D(35,34,59,60)          0.7428         estimate D2E/DX2                !
 ! D245  D(17,35,36,37)          0.0224         estimate D2E/DX2                !
 ! D246  D(17,35,36,60)        147.1276         estimate D2E/DX2                !
 ! D247  D(34,35,36,37)       -146.9978         estimate D2E/DX2                !
 ! D248  D(34,35,36,60)          0.1074         estimate D2E/DX2                !
 ! D249  D(35,36,37,21)        -12.1868         estimate D2E/DX2                !
 ! D250  D(35,36,37,38)        138.7332         estimate D2E/DX2                !
 ! D251  D(60,36,37,21)       -154.8833         estimate D2E/DX2                !
 ! D252  D(60,36,37,38)         -3.9634         estimate D2E/DX2                !
 ! D253  D(35,36,60,59)          0.3561         estimate D2E/DX2                !
 ! D254  D(35,36,60,61)       -142.6333         estimate D2E/DX2                !
 ! D255  D(37,36,60,59)        147.3827         estimate D2E/DX2                !
 ! D256  D(37,36,60,61)          4.3933         estimate D2E/DX2                !
 ! D257  D(21,37,38,39)         -0.4256         estimate D2E/DX2                !
 ! D258  D(21,37,38,62)        149.5955         estimate D2E/DX2                !
 ! D259  D(36,37,38,39)       -150.5944         estimate D2E/DX2                !
 ! D260  D(36,37,38,62)         -0.5733         estimate D2E/DX2                !
 ! D261  D(37,38,39,7)          -4.4885         estimate D2E/DX2                !
 ! D262  D(37,38,39,40)        138.3012         estimate D2E/DX2                !
 ! D263  D(62,38,39,7)        -155.3133         estimate D2E/DX2                !
 ! D264  D(62,38,39,40)        -12.5236         estimate D2E/DX2                !
 ! D265  D(37,38,62,61)          4.7449         estimate D2E/DX2                !
 ! D266  D(37,38,62,63)       -138.1637         estimate D2E/DX2                !
 ! D267  D(39,38,62,61)        155.5495         estimate D2E/DX2                !
 ! D268  D(39,38,62,63)         12.6409         estimate D2E/DX2                !
 ! D269  D(7,39,40,22)           0.1112         estimate D2E/DX2                !
 ! D270  D(7,39,40,41)         146.9941         estimate D2E/DX2                !
 ! D271  D(38,39,40,22)       -147.0421         estimate D2E/DX2                !
 ! D272  D(38,39,40,41)         -0.1593         estimate D2E/DX2                !
 ! D273  D(22,40,41,42)          4.4212         estimate D2E/DX2                !
 ! D274  D(22,40,41,63)        155.1533         estimate D2E/DX2                !
 ! D275  D(39,40,41,42)       -138.0021         estimate D2E/DX2                !
 ! D276  D(39,40,41,63)         12.73           estimate D2E/DX2                !
 ! D277  D(40,41,42,43)          0.0034         estimate D2E/DX2                !
 ! D278  D(40,41,42,70)        149.9362         estimate D2E/DX2                !
 ! D279  D(63,41,42,43)       -149.9339         estimate D2E/DX2                !
 ! D280  D(63,41,42,70)         -0.0011         estimate D2E/DX2                !
 ! D281  D(40,41,63,62)        -12.6159         estimate D2E/DX2                !
 ! D282  D(40,41,63,64)       -155.3629         estimate D2E/DX2                !
 ! D283  D(42,41,63,62)        138.1104         estimate D2E/DX2                !
 ! D284  D(42,41,63,64)         -4.6366         estimate D2E/DX2                !
 ! D285  D(41,42,43,23)         -4.4172         estimate D2E/DX2                !
 ! D286  D(41,42,43,44)        137.9603         estimate D2E/DX2                !
 ! D287  D(70,42,43,23)       -155.1455         estimate D2E/DX2                !
 ! D288  D(70,42,43,44)        -12.768          estimate D2E/DX2                !
 ! D289  D(41,42,70,50)       -138.0748         estimate D2E/DX2                !
 ! D290  D(41,42,70,65)          4.6292         estimate D2E/DX2                !
 ! D291  D(43,42,70,50)         12.6498         estimate D2E/DX2                !
 ! D292  D(43,42,70,65)        155.3537         estimate D2E/DX2                !
 ! D293  D(23,43,44,25)         -0.1508         estimate D2E/DX2                !
 ! D294  D(23,43,44,45)        147.0468         estimate D2E/DX2                !
 ! D295  D(42,43,44,25)       -146.9931         estimate D2E/DX2                !
 ! D296  D(42,43,44,45)          0.2045         estimate D2E/DX2                !
 ! D297  D(25,44,45,46)          4.5269         estimate D2E/DX2                !
 ! D298  D(25,44,45,50)        155.3248         estimate D2E/DX2                !
 ! D299  D(43,44,45,46)       -138.321          estimate D2E/DX2                !
 ! D300  D(43,44,45,50)         12.4769         estimate D2E/DX2                !
 ! D301  D(44,45,46,27)          0.392          estimate D2E/DX2                !
 ! D302  D(44,45,46,47)        150.591          estimate D2E/DX2                !
 ! D303  D(50,45,46,27)       -149.5944         estimate D2E/DX2                !
 ! D304  D(50,45,46,47)          0.6047         estimate D2E/DX2                !
 ! D305  D(44,45,50,49)       -155.5421         estimate D2E/DX2                !
 ! D306  D(44,45,50,70)        -12.5986         estimate D2E/DX2                !
 ! D307  D(46,45,50,49)         -4.7771         estimate D2E/DX2                !
 ! D308  D(46,45,50,70)        138.1665         estimate D2E/DX2                !
 ! D309  D(27,46,47,48)        154.8905         estimate D2E/DX2                !
 ! D310  D(27,46,47,51)         12.2048         estimate D2E/DX2                !
 ! D311  D(45,46,47,48)          3.9453         estimate D2E/DX2                !
 ! D312  D(45,46,47,51)       -138.7405         estimate D2E/DX2                !
 ! D313  D(46,47,48,49)         -4.3886         estimate D2E/DX2                !
 ! D314  D(46,47,48,57)       -147.3889         estimate D2E/DX2                !
 ! D315  D(51,47,48,49)        142.629          estimate D2E/DX2                !
 ! D316  D(51,47,48,57)         -0.3714         estimate D2E/DX2                !
 ! D317  D(46,47,51,29)          0.0096         estimate D2E/DX2                !
 ! D318  D(46,47,51,52)        147.0057         estimate D2E/DX2                !
 ! D319  D(48,47,51,29)       -147.0943         estimate D2E/DX2                !
 ! D320  D(48,47,51,52)         -0.0981         estimate D2E/DX2                !
 ! D321  D(47,48,49,50)          0.1812         estimate D2E/DX2                !
 ! D322  D(47,48,49,66)       -138.8159         estimate D2E/DX2                !
 ! D323  D(57,48,49,50)        138.9752         estimate D2E/DX2                !
 ! D324  D(57,48,49,66)         -0.022          estimate D2E/DX2                !
 ! D325  D(47,48,57,52)          0.6916         estimate D2E/DX2                !
 ! D326  D(47,48,57,56)        142.5414         estimate D2E/DX2                !
 ! D327  D(49,48,57,52)       -142.2017         estimate D2E/DX2                !
 ! D328  D(49,48,57,56)         -0.3519         estimate D2E/DX2                !
 ! D329  D(48,49,50,45)          4.427          estimate D2E/DX2                !
 ! D330  D(48,49,50,70)       -142.8509         estimate D2E/DX2                !
 ! D331  D(66,49,50,45)        147.6493         estimate D2E/DX2                !
 ! D332  D(66,49,50,70)          0.3714         estimate D2E/DX2                !
 ! D333  D(48,49,66,65)        142.2918         estimate D2E/DX2                !
 ! D334  D(48,49,66,67)          0.3583         estimate D2E/DX2                !
 ! D335  D(50,49,66,65)         -0.7725         estimate D2E/DX2                !
 ! D336  D(50,49,66,67)       -142.7061         estimate D2E/DX2                !
 ! D337  D(45,50,70,42)          0.0259         estimate D2E/DX2                !
 ! D338  D(45,50,70,65)       -147.0954         estimate D2E/DX2                !
 ! D339  D(49,50,70,42)        147.3002         estimate D2E/DX2                !
 ! D340  D(49,50,70,65)          0.1789         estimate D2E/DX2                !
 ! D341  D(29,51,52,53)          4.3647         estimate D2E/DX2                !
 ! D342  D(29,51,52,57)        147.4985         estimate D2E/DX2                !
 ! D343  D(47,51,52,53)       -142.6024         estimate D2E/DX2                !
 ! D344  D(47,51,52,57)          0.5314         estimate D2E/DX2                !
 ! D345  D(51,52,53,31)          0.2104         estimate D2E/DX2                !
 ! D346  D(51,52,53,54)        138.678          estimate D2E/DX2                !
 ! D347  D(57,52,53,31)       -138.7138         estimate D2E/DX2                !
 ! D348  D(57,52,53,54)         -0.2463         estimate D2E/DX2                !
 ! D349  D(51,52,57,48)         -0.752          estimate D2E/DX2                !
 ! D350  D(51,52,57,56)       -142.6112         estimate D2E/DX2                !
 ! D351  D(53,52,57,48)        142.2899         estimate D2E/DX2                !
 ! D352  D(53,52,57,56)          0.4307         estimate D2E/DX2                !
 ! D353  D(31,53,54,33)          0.5949         estimate D2E/DX2                !
 ! D354  D(31,53,54,55)        142.4763         estimate D2E/DX2                !
 ! D355  D(52,53,54,33)       -141.9704         estimate D2E/DX2                !
 ! D356  D(52,53,54,55)         -0.089          estimate D2E/DX2                !
 ! D357  D(33,54,55,56)        137.1837         estimate D2E/DX2                !
 ! D358  D(33,54,55,58)         -0.2577         estimate D2E/DX2                !
 ! D359  D(53,54,55,56)          0.2423         estimate D2E/DX2                !
 ! D360  D(53,54,55,58)       -137.1992         estimate D2E/DX2                !
 ! D361  D(54,55,56,57)         -0.0584         estimate D2E/DX2                !
 ! D362  D(54,55,56,67)       -142.0541         estimate D2E/DX2                !
 ! D363  D(58,55,56,57)        141.8399         estimate D2E/DX2                !
 ! D364  D(58,55,56,67)         -0.1557         estimate D2E/DX2                !
 ! D365  D(54,55,58,59)          0.0604         estimate D2E/DX2                !
 ! D366  D(54,55,58,68)        142.0563         estimate D2E/DX2                !
 ! D367  D(56,55,58,59)       -141.8397         estimate D2E/DX2                !
 ! D368  D(56,55,58,68)          0.1562         estimate D2E/DX2                !
 ! D369  D(55,56,57,48)       -137.1678         estimate D2E/DX2                !
 ! D370  D(55,56,57,52)         -0.2761         estimate D2E/DX2                !
 ! D371  D(67,56,57,48)          0.388          estimate D2E/DX2                !
 ! D372  D(67,56,57,52)        137.2797         estimate D2E/DX2                !
 ! D373  D(55,56,67,66)        141.9348         estimate D2E/DX2                !
 ! D374  D(55,56,67,68)          0.0959         estimate D2E/DX2                !
 ! D375  D(57,56,67,66)         -0.0525         estimate D2E/DX2                !
 ! D376  D(57,56,67,68)       -141.8915         estimate D2E/DX2                !
 ! D377  D(55,58,59,34)          0.2668         estimate D2E/DX2                !
 ! D378  D(55,58,59,60)        137.1756         estimate D2E/DX2                !
 ! D379  D(68,58,59,34)       -137.2968         estimate D2E/DX2                !
 ! D380  D(68,58,59,60)         -0.3881         estimate D2E/DX2                !
 ! D381  D(55,58,68,67)         -0.0971         estimate D2E/DX2                !
 ! D382  D(55,58,68,69)       -141.9292         estimate D2E/DX2                !
 ! D383  D(59,58,68,67)        141.8976         estimate D2E/DX2                !
 ! D384  D(59,58,68,69)          0.0655         estimate D2E/DX2                !
 ! D385  D(34,59,60,36)         -0.6765         estimate D2E/DX2                !
 ! D386  D(34,59,60,61)        142.1996         estimate D2E/DX2                !
 ! D387  D(58,59,60,36)       -142.5373         estimate D2E/DX2                !
 ! D388  D(58,59,60,61)          0.3388         estimate D2E/DX2                !
 ! D389  D(36,60,61,62)         -0.1864         estimate D2E/DX2                !
 ! D390  D(36,60,61,69)        138.8104         estimate D2E/DX2                !
 ! D391  D(59,60,61,62)       -138.9616         estimate D2E/DX2                !
 ! D392  D(59,60,61,69)          0.0353         estimate D2E/DX2                !
 ! D393  D(60,61,62,38)         -4.4082         estimate D2E/DX2                !
 ! D394  D(60,61,62,63)        142.8344         estimate D2E/DX2                !
 ! D395  D(69,61,62,38)       -147.6318         estimate D2E/DX2                !
 ! D396  D(69,61,62,63)         -0.3891         estimate D2E/DX2                !
 ! D397  D(60,61,69,64)       -142.2973         estimate D2E/DX2                !
 ! D398  D(60,61,69,68)         -0.3585         estimate D2E/DX2                !
 ! D399  D(62,61,69,64)          0.7751         estimate D2E/DX2                !
 ! D400  D(62,61,69,68)        142.7139         estimate D2E/DX2                !
 ! D401  D(38,62,63,41)         -0.0639         estimate D2E/DX2                !
 ! D402  D(38,62,63,64)        147.092          estimate D2E/DX2                !
 ! D403  D(61,62,63,41)       -147.3088         estimate D2E/DX2                !
 ! D404  D(61,62,63,64)         -0.1529         estimate D2E/DX2                !
 ! D405  D(41,63,64,65)          4.6947         estimate D2E/DX2                !
 ! D406  D(41,63,64,69)        147.7547         estimate D2E/DX2                !
 ! D407  D(62,63,64,65)       -142.4212         estimate D2E/DX2                !
 ! D408  D(62,63,64,69)          0.6388         estimate D2E/DX2                !
 ! D409  D(63,64,65,66)        138.8452         estimate D2E/DX2                !
 ! D410  D(63,64,65,70)         -0.0175         estimate D2E/DX2                !
 ! D411  D(69,64,65,66)          0.0046         estimate D2E/DX2                !
 ! D412  D(69,64,65,70)       -138.8581         estimate D2E/DX2                !
 ! D413  D(63,64,69,61)         -0.8698         estimate D2E/DX2                !
 ! D414  D(63,64,69,68)       -142.7939         estimate D2E/DX2                !
 ! D415  D(65,64,69,61)        142.0441         estimate D2E/DX2                !
 ! D416  D(65,64,69,68)          0.12           estimate D2E/DX2                !
 ! D417  D(64,65,66,49)       -142.0519         estimate D2E/DX2                !
 ! D418  D(64,65,66,67)         -0.1276         estimate D2E/DX2                !
 ! D419  D(70,65,66,49)          0.8833         estimate D2E/DX2                !
 ! D420  D(70,65,66,67)        142.8076         estimate D2E/DX2                !
 ! D421  D(64,65,70,42)         -4.6685         estimate D2E/DX2                !
 ! D422  D(64,65,70,50)        142.4101         estimate D2E/DX2                !
 ! D423  D(66,65,70,42)       -147.7421         estimate D2E/DX2                !
 ! D424  D(66,65,70,50)         -0.6634         estimate D2E/DX2                !
 ! D425  D(49,66,67,56)         -0.3201         estimate D2E/DX2                !
 ! D426  D(49,66,67,68)        137.0984         estimate D2E/DX2                !
 ! D427  D(65,66,67,56)       -137.293          estimate D2E/DX2                !
 ! D428  D(65,66,67,68)          0.1255         estimate D2E/DX2                !
 ! D429  D(56,67,68,58)          0.0008         estimate D2E/DX2                !
 ! D430  D(56,67,68,69)        141.8184         estimate D2E/DX2                !
 ! D431  D(66,67,68,58)       -141.8188         estimate D2E/DX2                !
 ! D432  D(66,67,68,69)         -0.0012         estimate D2E/DX2                !
 ! D433  D(58,68,69,61)          0.3071         estimate D2E/DX2                !
 ! D434  D(58,68,69,64)        137.2876         estimate D2E/DX2                !
 ! D435  D(67,68,69,61)       -137.1018         estimate D2E/DX2                !
 ! D436  D(67,68,69,64)         -0.1214         estimate D2E/DX2                !
 ! D437  D(1,71,72,73)          57.6514         estimate D2E/DX2                !
 ! D438  D(1,71,72,81)        -124.7666         estimate D2E/DX2                !
 ! D439  D(2,71,72,73)         131.2444         estimate D2E/DX2                !
 ! D440  D(2,71,72,81)         -51.1736         estimate D2E/DX2                !
 ! D441  D(83,71,72,73)        -84.1588         estimate D2E/DX2                !
 ! D442  D(83,71,72,81)         93.4232         estimate D2E/DX2                !
 ! D443  D(1,71,83,84)         -90.3107         estimate D2E/DX2                !
 ! D444  D(1,71,83,85)          24.3914         estimate D2E/DX2                !
 ! D445  D(1,71,83,86)         147.6533         estimate D2E/DX2                !
 ! D446  D(2,71,83,84)        -164.6828         estimate D2E/DX2                !
 ! D447  D(2,71,83,85)         -49.9807         estimate D2E/DX2                !
 ! D448  D(2,71,83,86)          73.2811         estimate D2E/DX2                !
 ! D449  D(72,71,83,84)         51.1542         estimate D2E/DX2                !
[...]
 Alpha virt. eigenvalues --    1.04652   1.04786   1.05327   1.05566   1.05967
 Alpha virt. eigenvalues --    1.06241   1.06422   1.07080   1.07141   1.07481
 Alpha virt. eigenvalues --    1.07642   1.07925   1.08231   1.08328   1.08661
 Alpha virt. eigenvalues --    1.08706   1.09050   1.09312   1.10243   1.10390
 Alpha virt. eigenvalues --    1.10965   1.11465   1.11971   1.12386   1.12780
 Alpha virt. eigenvalues --    1.13274   1.13808   1.14230   1.14602   1.15025
 Alpha virt. eigenvalues --    1.15278   1.15405   1.16093   1.16401   1.16512
 Alpha virt. eigenvalues --    1.16932   1.17714   1.18515   1.18651   1.18937
 Alpha virt. eigenvalues --    1.19344   1.19499   1.19785   1.20420   1.20626
 Alpha virt. eigenvalues --    1.21266   1.21371   1.21469   1.22433   1.22630
 Alpha virt. eigenvalues --    1.22844   1.23067   1.23282   1.23486   1.23766
 Alpha virt. eigenvalues --    1.23903   1.24030   1.24409   1.24569   1.25002
 Alpha virt. eigenvalues --    1.25884   1.26571   1.27166   1.27927   1.28228
 Alpha virt. eigenvalues --    1.28839   1.29173   1.29536   1.29775   1.30474
 Alpha virt. eigenvalues --    1.30607   1.30790   1.31342   1.32371   1.32718
 Alpha virt. eigenvalues --    1.33224   1.33748   1.34108   1.34581   1.34737
 Alpha virt. eigenvalues --    1.35025   1.35051   1.35476   1.35715   1.35975
 Alpha virt. eigenvalues --    1.36277   1.36577   1.36807   1.37206   1.37781
 Alpha virt. eigenvalues --    1.37907   1.38515   1.38681   1.39662   1.39801
 Alpha virt. eigenvalues --    1.41758   1.42090   1.42450   1.42881   1.43486
 Alpha virt. eigenvalues --    1.44111   1.45129   1.45499   1.46558   1.47093
 Alpha virt. eigenvalues --    1.48341   1.48788   1.49249   1.49825   1.50130
 Alpha virt. eigenvalues --    1.50295   1.50469   1.50606   1.50673   1.50929
 Alpha virt. eigenvalues --    1.51144   1.51713   1.52297   1.52460   1.52991
 Alpha virt. eigenvalues --    1.53809   1.54714   1.55190   1.55847   1.56403
 Alpha virt. eigenvalues --    1.57112   1.57232   1.57874   1.58228   1.58406
 Alpha virt. eigenvalues --    1.58836   1.59063   1.60084   1.60687   1.60953
 Alpha virt. eigenvalues --    1.61372   1.61856   1.62098   1.63303   1.63632
 Alpha virt. eigenvalues --    1.64319   1.64681   1.65364   1.66477   1.67600
 Alpha virt. eigenvalues --    1.67813   1.68469   1.68898   1.69553   1.70039
 Alpha virt. eigenvalues --    1.70207   1.70377   1.70788   1.71134   1.71324
 Alpha virt. eigenvalues --    1.71867   1.72672   1.72747   1.73066   1.73625
 Alpha virt. eigenvalues --    1.73978   1.74046   1.74168   1.74300   1.74359
 Alpha virt. eigenvalues --    1.74699   1.75012   1.75175   1.75448   1.75879
 Alpha virt. eigenvalues --    1.76105   1.76167   1.76320   1.76415   1.76503
 Alpha virt. eigenvalues --    1.76770   1.77131   1.77248   1.77371   1.77542
 Alpha virt. eigenvalues --    1.77554   1.77796   1.77908   1.78369   1.78543
 Alpha virt. eigenvalues --    1.79058   1.79609   1.79760   1.80201   1.80333
 Alpha virt. eigenvalues --    1.80620   1.80685   1.80863   1.81072   1.81162
 Alpha virt. eigenvalues --    1.81424   1.81522   1.81684   1.82022   1.82070
 Alpha virt. eigenvalues --    1.82420   1.82700   1.83272   1.83676   1.83950
 Alpha virt. eigenvalues --    1.84727   1.84976   1.85327   1.85502   1.86080
 Alpha virt. eigenvalues --    1.86643   1.86936   1.87391   1.87682   1.87774
 Alpha virt. eigenvalues --    1.87969   1.88067   1.88831   1.89088   1.89704
 Alpha virt. eigenvalues --    1.90161   1.90572   1.91145   1.91439   1.91637
 Alpha virt. eigenvalues --    1.91925   1.92316   1.92789   1.93170   1.93349
 Alpha virt. eigenvalues --    1.93743   1.94212   1.94705   1.94952   1.95273
 Alpha virt. eigenvalues --    1.95673   1.95932   1.96387   1.96546   1.96792
 Alpha virt. eigenvalues --    1.97098   1.97369   1.98135   1.98782   1.98834
 Alpha virt. eigenvalues --    1.99234   1.99898   2.00195   2.00511   2.00573
 Alpha virt. eigenvalues --    2.01187   2.01381   2.01678   2.01923   2.01983
 Alpha virt. eigenvalues --    2.02415   2.02622   2.02852   2.02968   2.03502
 Alpha virt. eigenvalues --    2.03545   2.03661   2.03878   2.03972   2.04271
 Alpha virt. eigenvalues --    2.04443   2.04550   2.04734   2.05258   2.05684
 Alpha virt. eigenvalues --    2.05778   2.05973   2.06293   2.06549   2.06720
 Alpha virt. eigenvalues --    2.06865   2.06893   2.07100   2.07131   2.07550
 Alpha virt. eigenvalues --    2.07668   2.08003   2.08287   2.08481   2.08660
 Alpha virt. eigenvalues --    2.08864   2.08970   2.09266   2.09644   2.09805
 Alpha virt. eigenvalues --    2.09972   2.10302   2.10666   2.10967   2.11292
 Alpha virt. eigenvalues --    2.11624   2.11755   2.12071   2.12265   2.12638
 Alpha virt. eigenvalues --    2.12858   2.12900   2.13078   2.13567   2.13722
 Alpha virt. eigenvalues --    2.14083   2.14381   2.14490   2.14937   2.15120
 Alpha virt. eigenvalues --    2.16129   2.16346   2.17069   2.17713   2.17767
 Alpha virt. eigenvalues --    2.17894   2.18027   2.18279   2.18573   2.18824
 Alpha virt. eigenvalues --    2.19026   2.19251   2.19576   2.19588   2.19642
 Alpha virt. eigenvalues --    2.20248   2.20692   2.20938   2.21127   2.21316
 Alpha virt. eigenvalues --    2.21754   2.21989   2.22234   2.22427   2.22784
 Alpha virt. eigenvalues --    2.23682   2.24610   2.25343   2.25868   2.26761
 Alpha virt. eigenvalues --    2.26962   2.27605   2.27952   2.27968   2.28249
 Alpha virt. eigenvalues --    2.29262   2.30175   2.30301   2.31091   2.31516
 Alpha virt. eigenvalues --    2.32091   2.32895   2.33603   2.33920   2.34629
 Alpha virt. eigenvalues --    2.35086   2.35218   2.36088   2.36613   2.37130
 Alpha virt. eigenvalues --    2.37409   2.37731   2.38183   2.38906   2.39715
 Alpha virt. eigenvalues --    2.40086   2.40557   2.40848   2.41180   2.41615
 Alpha virt. eigenvalues --    2.41716   2.41908   2.42007   2.42303   2.42752
 Alpha virt. eigenvalues --    2.43117   2.43575   2.43699   2.44285   2.45405
 Alpha virt. eigenvalues --    2.46115   2.46451   2.46879   2.47622   2.47694
 Alpha virt. eigenvalues --    2.47781   2.48107   2.48443   2.48693   2.48786
 Alpha virt. eigenvalues --    2.49687   2.50294   2.50578   2.51124   2.51441
 Alpha virt. eigenvalues --    2.51688   2.51918   2.52658   2.52840   2.53054
 Alpha virt. eigenvalues --    2.53663   2.53843   2.54303   2.54481   2.54637
 Alpha virt. eigenvalues --    2.54920   2.55344   2.56024   2.56968   2.57294
 Alpha virt. eigenvalues --    2.57577   2.57865   2.57932   2.58649   2.58844
 Alpha virt. eigenvalues --    2.59132   2.59708   2.59834   2.60032   2.60407
 Alpha virt. eigenvalues --    2.60732   2.61260   2.62327   2.62662   2.62781
 Alpha virt. eigenvalues --    2.63073   2.63619   2.63742   2.64448   2.64831
 Alpha virt. eigenvalues --    2.65375   2.65887   2.66156   2.66579   2.67172
 Alpha virt. eigenvalues --    2.67404   2.67693   2.67951   2.68191   2.68308
 Alpha virt. eigenvalues --    2.68491   2.68706   2.68877   2.69091   2.69256
 Alpha virt. eigenvalues --    2.70156   2.70771   2.70930   2.71216   2.71326
 Alpha virt. eigenvalues --    2.71643   2.72083   2.72320   2.72734   2.72913
 Alpha virt. eigenvalues --    2.73242   2.73554   2.73872   2.74285   2.75097
 Alpha virt. eigenvalues --    2.75344   2.75545   2.76134   2.76320   2.76842
 Alpha virt. eigenvalues --    2.76928   2.77276   2.77307   2.77749   2.77805
 Alpha virt. eigenvalues --    2.78200   2.79058   2.79275   2.79420   2.79485
 Alpha virt. eigenvalues --    2.79934   2.80536   2.81040   2.81779   2.82390
 Alpha virt. eigenvalues --    2.82681   2.83580   2.84326   2.84543   2.85457
 Alpha virt. eigenvalues --    2.85669   2.86101   2.86598   2.87666   2.88337
 Alpha virt. eigenvalues --    2.88709   2.88891   2.89009   2.89058   2.89090
 Alpha virt. eigenvalues --    2.89704   2.91362   2.91666   2.92405   2.92945
 Alpha virt. eigenvalues --    2.93367   2.93903   2.94096   2.94258   2.94491
 Alpha virt. eigenvalues --    2.94854   2.94935   2.95074   2.95401   2.95760
 Alpha virt. eigenvalues --    2.96797   2.97038   2.97893   2.98216   2.98440
 Alpha virt. eigenvalues --    2.98520   2.98779   2.98802   2.98984   2.99413
 Alpha virt. eigenvalues --    2.99958   3.00769   3.01111   3.01736   3.02130
 Alpha virt. eigenvalues --    3.03169   3.03782   3.03956   3.04423   3.04834
 Alpha virt. eigenvalues --    3.05619   3.05933   3.06804   3.06887   3.07291
 Alpha virt. eigenvalues --    3.09078   3.10692   3.11939   3.14520   3.15904
 Alpha virt. eigenvalues --    3.17921   3.18092   3.18345   3.19628   3.19992
 Alpha virt. eigenvalues --    3.21332   3.22212   3.26132   3.26439   3.27285
 Alpha virt. eigenvalues --    3.27512   3.28398   3.28920   3.30553   3.32036
 Alpha virt. eigenvalues --    3.33629   3.34704   3.36135   3.36173   3.41499
 Alpha virt. eigenvalues --    3.41641   3.45562   3.47013   3.47956   3.49137
 Alpha virt. eigenvalues --    3.52132   3.52277   3.52388   3.58828   3.59335
 Alpha virt. eigenvalues --    3.64744   3.71575   3.72160   3.72364   3.74302
          Condensed to atoms (all electrons):
 Mulliken charges:
               1
     1  C   -0.158089
     2  C   -0.151833
     3  C   -0.006167
     4  C    0.075405
     5  C    0.004997
     6  C   -0.000143
     7  C   -0.016727
     8  C   -0.001886
     9  C    0.009386
    10  C    0.076156
    11  C   -0.003618
    12  C   -0.009505
    13  C    0.063691
    14  C   -0.019975
    15  C   -0.023510
    16  C    0.052070
    17  C    0.066236
    18  C   -0.036586
    19  C   -0.020862
    20  C    0.076188
    21  C   -0.036244
    22  C   -0.011063
    23  C   -0.011628
    24  C    0.000449
    25  C   -0.016052
    26  C   -0.001715
    27  C   -0.033803
    28  C   -0.040826
    29  C    0.068941
    30  C    0.050675
    31  C   -0.034150
    32  C   -0.033843
    33  C   -0.006115
    34  C   -0.004306
    35  C   -0.041384
    36  C   -0.037465
    37  C    0.059257
    38  C    0.073202
    39  C   -0.049489
    40  C   -0.037216
    41  C    0.064443
    42  C    0.063151
    43  C   -0.036397
    44  C   -0.050612
    45  C    0.073655
    46  C    0.058732
    47  C   -0.036674
    48  C   -0.010857
    49  C   -0.003833
    50  C   -0.045221
    51  C   -0.042404
    52  C   -0.003638
    53  C   -0.006434
    54  C    0.012738
    55  C    0.002415
    56  C    0.000315
    57  C    0.015477
    58  C    0.000177
    59  C    0.015678
    60  C   -0.010614
    61  C   -0.004205
    62  C   -0.044559
    63  C   -0.039091
    64  C   -0.008364
    65  C   -0.008876
    66  C    0.013279
    67  C   -0.000112
    68  C    0.000305
    69  C    0.013384
    70  C   -0.038358
    71  C   -0.043299
    72  C   -0.035334
    73  C   -0.029672
    74  H    0.042687
    75  C   -0.044865
    76  H    0.049072
    77  C   -0.034826
    78  H    0.050604
    79  C   -0.045958
    80  H    0.048245
    81  C   -0.020470
    82  H    0.044881
    83  C    0.164781
    84  H    0.043095
    85  H    0.029865
    86  C   -0.091313
    87  H    0.043961
    88  H    0.043753
    89  C   -0.025324
    90  H    0.080789
    91  H    0.082681
    92  C    0.247802
    93  O   -0.347275
    94  O   -0.347746
    95  C    0.112704
    96  H    0.065332
    97  H    0.065385
    98  H    0.074489
 Sum of Mulliken charges =  -0.00000
 Mulliken charges with hydrogens summed into heavy atoms:
               1
     1  C   -0.158089
     2  C   -0.151833
     3  C   -0.006167
     4  C    0.075405
     5  C    0.004997
     6  C   -0.000143
     7  C   -0.016727
     8  C   -0.001886
     9  C    0.009386
    10  C    0.076156
    11  C   -0.003618
    12  C   -0.009505
    13  C    0.063691
    14  C   -0.019975
    15  C   -0.023510
    16  C    0.052070
    17  C    0.066236
    18  C   -0.036586
    19  C   -0.020862
    20  C    0.076188
    21  C   -0.036244
    22  C   -0.011063
    23  C   -0.011628
    24  C    0.000449
    25  C   -0.016052
    26  C   -0.001715
    27  C   -0.033803
    28  C   -0.040826
    29  C    0.068941
    30  C    0.050675
    31  C   -0.034150
    32  C   -0.033843
    33  C   -0.006115
    34  C   -0.004306
    35  C   -0.041384
    36  C   -0.037465
    37  C    0.059257
    38  C    0.073202
    39  C   -0.049489
    40  C   -0.037216
    41  C    0.064443
    42  C    0.063151
    43  C   -0.036397
    44  C   -0.050612
    45  C    0.073655
    46  C    0.058732
    47  C   -0.036674
    48  C   -0.010857
    49  C   -0.003833
    50  C   -0.045221
    51  C   -0.042404
    52  C   -0.003638
    53  C   -0.006434
    54  C    0.012738
    55  C    0.002415
    56  C    0.000315
    57  C    0.015477
    58  C    0.000177
    59  C    0.015678
    60  C   -0.010614
    61  C   -0.004205
    62  C   -0.044559
    63  C   -0.039091
    64  C   -0.008364
    65  C   -0.008876
    66  C    0.013279
    67  C   -0.000112
    68  C    0.000305
    69  C    0.013384
    70  C   -0.038358
    71  C   -0.043299
    72  C   -0.035334
    73  C    0.013015
    75  C    0.004207
    77  C    0.015779
    79  C    0.002287
    81  C    0.024412
    83  C    0.237741
    86  C   -0.003600
    89  C    0.138146
    92  C    0.247802
    93  O   -0.347275
    94  O   -0.347746
    95  C    0.317911
 Electronic spatial extent (au):  <R**2>=          44924.4088
 Charge=             -0.0000 electrons
 Dipole moment (field-independent basis, Debye):
    X=              5.8611    Y=             -0.7601    Z=              1.5005  Tot=              6.0977
 Quadrupole moment (field-independent basis, Debye-Ang):
   XX=           -446.7475   YY=           -464.5003   ZZ=           -477.9802
   XY=             -2.9003   XZ=             16.3461   YZ=             -3.0433
 Traceless Quadrupole moment (field-independent basis, Debye-Ang):
   XX=             16.3285   YY=             -1.4243   ZZ=            -14.9042
   XY=             -2.9003   XZ=             16.3461   YZ=             -3.0433
 Octapole moment (field-independent basis, Debye-Ang**2):
  XXX=            591.2468  YYY=            -48.5441  ZZZ=            -28.5697  XYY=            239.8268
  XXY=            -99.0111  XXZ=             91.2235  XZZ=             98.9273  YZZ=             10.9189
  YYZ=             -3.5658  XYZ=            -28.1306
 Hexadecapole moment (field-independent basis, Debye-Ang**3):
 XXXX=         -35065.2069 YYYY=         -14963.7313 ZZZZ=         -12204.1015 XXXY=          -1631.9693
 XXXZ=            617.0639 YYYX=           -533.8452 YYYZ=            -32.5731 ZZZX=            -78.8863
 ZZZY=            -78.5966 XXYY=          -7642.1356 XXZZ=          -8443.3758 YYZZ=          -4596.0917
 XXYZ=           -220.5106 YYXZ=            -36.8339 ZZXY=             68.9744
 N-N= 1.432251576759D+04 E-N=-3.623340852662D+04  KE= 3.246096901732D+03
 1\1\GINC-NODE016\FOpt\RwB97XD\def2SVP\C82H14O2\PSYCHE\07-Feb-2020\0\\#
  wB97XD/Def2SVP Opt # SCRF=(SMD,Solvent=Water) # Integral=(Grid=UltraF
 ineGrid)\\Geometry optimisation, Mol: A2\\0,1\C,6.1557682324,15.866059
 2053,15.4476411212\C,7.2634827041,16.9317163088,14.9978637424\C,7.2780
 173695,15.789335774,17.707382761\C,6.3327777656,15.311809608,16.817888
 5293\C,6.0581379621,13.9018543708,16.7842629573\C,6.6710275985,13.0296
 735715,17.6845462118\C,7.6328752228,13.5365795558,18.6168520879\C,7.93
 94381876,14.8862427374,18.6134896817\C,5.8845006828,13.5040231553,15.4
 064320566\C,6.0517967566,14.6634366316,14.5758522641\C,6.7290876901,14
 .5395075936,13.3766354675\C,7.7347930429,15.5253352867,12.9701918095\C
 ,8.0319901062,16.5899500177,13.7786306443\C,9.4089330133,16.9701131292
 ,13.9729297485\C,9.5793305143,17.3649874932,15.3283154603\C,10.8156739
 869,17.1809939576,15.9949049735\C,10.7874448071,16.709011304,17.375864
 0754\C,9.5247576263,16.4572435158,17.9665298877\C,8.2805985514,16.7752
 924347,17.2913623174\C,8.3089502589,17.2416621634,16.0028896409\C,9.31
 49188152,15.3097937022,18.781661359\C,7.1501355875,11.7413775506,17.23
 59177404\C,6.983915186,11.3615082601,15.9206276226\C,6.3301894462,12.2
 502563582,14.9860458199\C,7.0153746354,12.126388088,13.7348432136\C,7.
 2237585264,13.2530185162,12.9576511392\C,8.4930491555,13.4316371789,12
 .2810260229\C,8.8085114477,14.8191316923,12.2985042764\C,10.1537277237
 ,15.2597213004,12.3604919577\C,10.4677168001,16.3826249025,13.23823287
 79\C,11.7538063297,16.4589268562,13.8225016141\C,11.9249460799,16.8515
 667972,15.1803718362\C,13.0664413391,16.1341793702,15.7143656154\C,13.
 039107808,15.6812975396,17.0179406399\C,11.8721544916,15.9291328695,17
 .8450154237\C,11.6597267272,14.7836225919,18.6630923493\C,10.354482685
 6,14.3798591685,19.0322271022\C,10.0322358028,12.9470540553,19.0185718
 289\C,8.6959248097,12.5573282451,18.7636007292\C,8.3963206914,11.45054
 43118,17.9186424223\C,9.4251906434,10.7005834391,17.296251561\C,9.2481
 195149,10.2961674563,15.895619775\C,8.0562156804,10.6731604238,15.2281
 215208\C,8.0794290644,11.1485191637,13.8856258147\C,9.2924362268,11.25
 6037952,13.1647598164\C,9.5070380157,12.4425604786,12.3262972705\C,10.
 8325319876,12.8924454546,12.1166196866\C,11.9727464654,12.1652491094,1
 2.6448927863\C,11.7715376013,11.0548904003,13.4384859747\C,10.41893884
 92,10.6212053654,13.7409168987\C,11.1507485629,14.2798377413,12.136572
 6939\C,12.4903911903,14.4269044347,12.676154986\C,12.7868626642,15.494
 1730136,13.4996670124\C,13.6141376981,15.2988107803,14.6690923675\C,14
 .1127002248,14.03705152,14.9704265462\C,13.8043830915,12.9168411427,14
 .1039134396\C,13.0107642199,13.1135248055,12.9787015909\C,14.086795042
 7,13.5624478907,16.3397214541\C,13.5619900848,14.3735588844,17.3403874
 832\C,12.6936708947,13.8135230229,18.3505548249\C,12.3896661535,12.468
 0302982,18.3300052687\C,11.0357933654,12.0308902236,18.621506592\C,10.
 7376296349,10.9253138752,17.7743679878\C,11.9031323788,10.6727438514,1
 6.9445759849\C,11.7367004689,10.2929919737,15.6287703497\C,12.59583210
 78,10.8388616113,14.604184555\C,13.5930333677,11.7512795872,14.9373635
 724\C,13.7675656099,12.1498393226,16.3178999421\C,12.9366328537,11.617
 1032731,17.2995311269\C,10.3975581379,10.1482477064,15.0842574419\C,5.
 7978548836,17.2774393431,15.0728025155\C,5.0664617936,17.4710158253,13
 .7705053842\C,3.842720358,16.8268036737,13.5621303085\H,3.4514213872,1
 6.1522797813,14.3281528271\C,3.1269726805,17.0348119099,12.3842858096\
 H,2.1744095378,16.5229939578,12.2304725687\C,3.6283389722,17.891912404
 6,11.403615649\H,3.0698745953,18.0526364234,10.4787675257\C,4.84537324
 2,18.5421070419,11.608202175\H,5.2427062372,19.2156517449,10.845769219
 9\C,5.560995585,18.3324895915,12.7867943826\H,6.5153948246,18.84095303
 1,12.9432379601\C,5.3532141642,18.224938717,16.1790408978\H,4.26129876
 49,18.1240681679,16.2878110512\H,5.7889892564,17.9186608719,17.1408202
 823\C,5.7264239361,19.6762627503,15.901390928\H,5.2332105463,20.027713
 4918,14.9821406841\H,6.8117247091,19.7478325376,15.7202818747\C,5.3468
 252303,20.5863552606,17.0577103639\H,5.845437585,20.2776035905,17.9910
 289102\H,4.2652880376,20.5376786523,17.2664201779\C,5.6912976214,22.02
 96170807,16.818398131\O,6.1917941491,22.4733515409,15.8072711944\O,5.3
 780076718,22.7955271492,17.8632278611\C,5.6523906065,24.1896058148,17.
 7507864956\H,6.7269233461,24.3634094765,17.5984875942\H,5.0894525731,2
 4.6302168696,16.9158795447\H,5.3317597353,24.6405719287,18.6960243294\
 \Version=ES64L-G16RevA.03\State=1-A\HF=-3280.129699\RMSD=5.764e-09\RMS
 F=2.223e-06\Dipole=-1.5931037,1.6923431,0.5943361\Quadrupole=6.6572669
 ,-1.3216541,-5.3356128,-10.8518152,-2.4201899,11.4985928\PG=C01 [X(C82
 H14O2)]\\@


 THE MEEK SHALL INHERIT THE EARTH.
 (THE REST OF US WILL ESCAPE TO THE STARS)
 Job cpu time:      12 days  0 hours 21 minutes 57.9 seconds.
 Elapsed time:       0 days  7 hours 29 minutes 23.5 seconds.
 File lengths (MBytes):  RWF=   1644 Int=      0 D2E=      0 Chk=    128 Scr=      1
 Normal termination of Gaussian 16 at Fri Feb  7 06:34:35 2020.
