 Entering Gaussian System, Link 0=g16
 Initial command:
 /opt/apps/chemistry/Gaussian/g16/l1.exe "/tmp/Gau-226843.inp" -scrdir="/tmp/"
 Entering Link 1 = /opt/apps/chemistry/Gaussian/g16/l1.exe PID=    226844.
  
 Copyright (c) 1988,1990,1992,1993,1995,1998,2003,2009,2016,
            Gaussian, Inc.  All Rights Reserved.
  
 This is part of the Gaussian(R) 16 program.  It is based on
 the Gaussian(R) 09 system (copyright 2009, Gaussian, Inc.),
 the Gaussian(R) 03 system (copyright 2003, Gaussian, Inc.),
 the Gaussian(R) 98 system (copyright 1998, Gaussian, Inc.),
 the Gaussian(R) 94 system (copyright 1995, Gaussian, Inc.),
 the Gaussian 92(TM) system (copyright 1992, Gaussian, Inc.),
 the Gaussian 90(TM) system (copyright 1990, Gaussian, Inc.),
 the Gaussian 88(TM) system (copyright 1988, Gaussian, Inc.),
 the Gaussian 86(TM) system (copyright 1986, Carnegie Mellon
 University), and the Gaussian 82(TM) system (copyright 1983,
 Carnegie Mellon University). Gaussian is a federally registered
 trademark of Gaussian, Inc.
  
 This software contains proprietary and confidential information,
 including trade secrets, belonging to Gaussian, Inc.
  
 This software is provided under written license and may be
 used, copied, transmitted, or stored only in accord with that
 written license.
  
 The following legend is applicable only to US Government
 contracts under FAR:
  
                    RESTRICTED RIGHTS LEGEND
  
 Use, reproduction and disclosure by the US Government is
 subject to restrictions as set forth in subparagraphs (a)
 and (c) of the Commercial Computer Software - Restricted
 Rights clause in FAR 52.227-19.
  
 Gaussian, Inc.
 340 Quinnipiac St., Bldg. 40, Wallingford CT 06492
  
  
 ---------------------------------------------------------------
 Warning -- This program may not be used in any manner that
 competes with the business of Gaussian, Inc. or will provide
 assistance to any competitor of Gaussian, Inc.  The licensee
 of this program is prohibited from giving any competitor of
 Gaussian, Inc. access to this program.  By using this program,
 the user acknowledges that Gaussian, Inc. is engaged in the
 business of creating and licensing software in the field of
 computational chemistry and represents and warrants to the
 licensee that it is not a competitor of Gaussian, Inc. and that
 it will not use this program in any manner prohibited above.
 ---------------------------------------------------------------
  

 Cite this work as:
 Gaussian 16, Revision A.03,
 M. J. Frisch, G. W. Trucks, H. B. Schlegel, G. E. Scuseria, 
 M. A. Robb, J. R. Cheeseman, G. Scalmani, V. Barone, 
 G. A. Petersson, H. Nakatsuji, X. Li, M. Caricato, A. V. Marenich, 
 J. Bloino, B. G. Janesko, R. Gomperts, B. Mennucci, H. P. Hratchian, 
 J. V. Ortiz, A. F. Izmaylov, J. L. Sonnenberg, D. Williams-Young, 
 F. Ding, F. Lipparini, F. Egidi, J. Goings, B. Peng, A. Petrone, 
 T. Henderson, D. Ranasinghe, V. G. Zakrzewski, J. Gao, N. Rega, 
 G. Zheng, W. Liang, M. Hada, M. Ehara, K. Toyota, R. Fukuda, 
 J. Hasegawa, M. Ishida, T. Nakajima, Y. Honda, O. Kitao, H. Nakai, 
 T. Vreven, K. Throssell, J. A. Montgomery, Jr., J. E. Peralta, 
 F. Ogliaro, M. J. Bearpark, J. J. Heyd, E. N. Brothers, K. N. Kudin, 
 V. N. Staroverov, T. A. Keith, R. Kobayashi, J. Normand, 
 K. Raghavachari, A. P. Rendell, J. C. Burant, S. S. Iyengar, 
 J. Tomasi, M. Cossi, J. M. Millam, M. Klene, C. Adamo, R. Cammi, 
 J. W. Ochterski, R. L. Martin, K. Morokuma, O. Farkas, 
 J. B. Foresman, and D. J. Fox, Gaussian, Inc., Wallingford CT, 2016.
 
 ******************************************
 Gaussian 16:  ES64L-G16RevA.03 25-Dec-2016
                10-Feb-2020 
 ******************************************
 %mem=360GB
 %nprocshared=40
 Will use up to   40 processors via shared memory.
 %OldChk=/users/psyche/volatile/gaussian/nanohybrid/chk/A3_2.chk
 %Chk=/users/psyche/volatile/gaussian/nanohybrid/chk/A3_3.chk
 Copying data from "/users/psyche/volatile/gaussian/nanohybrid/chk/A3_2.chk" to current chk file "/users/psyche/volatile/gaussian/nanohybrid/chk/A3_3.chk"
 IOpt=  2 FromEx=T IUOpen= 4 IOptOp= 5 NList=   0 IFRang= 0 IUIn= 4 IUOut= 2.
 ----------------------------------------------------------------------
 # wB97XD/Def2SVP # Geom=Checkpoint Guess=Read # Opt=(maxstep=5,maxcycl
 e=100) # SCRF=(SMD,Solvent=Water) # Integral=(Grid=UltraFineGrid)
 ----------------------------------------------------------------------
 1/6=100,8=5,18=20,19=15,26=6,29=2,38=1/1,3;
 2/9=110,12=2,40=1/2;
 3/5=43,7=101,11=2,14=-4,25=1,30=1,70=32201,71=1,72=1,74=-58,75=-5,116=-2/1,2,3;
 4/5=1/1;
 5/5=2,38=6,53=1/2;
 6/7=2,8=2,9=2,10=2,28=1/1;
 7//1,2,3,16;
 1/6=100,8=5,18=20,19=15,26=6/3(2);
 2/9=110/2;
 99//99;
 2/9=110/2;
 3/5=43,7=101,11=2,14=-2,25=1,30=1,70=32205,71=1,72=1,74=-58,75=-5/1,2,3;
 4/5=5,16=3,69=1/1;
 5/5=2,38=5,53=1/2;
 7//1,2,3,16;
 1/6=100,8=5,18=20,19=15,26=6/3(-5);
 2/9=110/2;
 6/7=2,8=2,9=2,10=2,19=2,28=1/1;
 99/9=1/99;
 --------------------------------
 Geometry optimisation, Mol: A3_3
 --------------------------------
 Structure from the checkpoint file:  "/users/psyche/volatile/gaussian/nanohybrid/chk/A3_3.chk"
 Charge =  0 Multiplicity = 1
 Redundant internal coordinates found in file.  (old form).
 C,0,3.4200326907,-2.6285915161,0.2532967152
 C,0,2.5371970488,-2.2858753252,-2.0175775906
 C,0,3.7686854864,2.107190435,-2.4664011464
 C,0,1.4710525423,0.9153613236,3.4829006724
 C,0,0.5398007478,3.3873755037,-1.6653667816
 C,0,2.4392622166,-2.8870504987,-0.7024746484
 C,0,0.9980872642,3.2851316492,1.9884857284
 C,0,4.9941850109,0.2250113347,-1.4593565883
 C,0,-1.0465179475,-0.3814299392,-1.924636202
 C,0,0.1864353549,1.2101159636,3.0322413191
 C,0,-1.5246955353,-1.5059033192,0.1769367029
 C,0,-1.5898521354,0.609539936,-1.0191305145
 C,0,-1.0515376877,2.1348133993,1.2644114417
 C,0,1.0980059135,3.8952543609,0.6750581232
 C,0,0.2643120788,-2.3584682615,-1.4434939847
 C,0,2.8851388041,3.713755359,-1.0025550336
 C,0,-0.6713307132,-2.1337153015,1.3814739341
 C,0,-0.2127020693,-1.1226624933,2.4272136281
 C,0,1.8851157023,3.429751457,-2.0123059517
 C,0,4.6270683748,1.3806832392,1.8918695651
 C,0,4.7840776195,2.3494279125,-0.2392802138
 C,0,5.2695746361,0.9858823997,-0.3296254951
 C,0,4.61145628,-1.1642190662,-1.3224132924
 C,0,1.1261725459,-1.4209601826,2.8523292282
 C,0,-0.8458511698,-1.5924989161,-1.183317089
 C,0,3.6005119816,-1.4483526732,-2.324483562
 C,0,-0.0506177671,2.4214104491,2.2725437516
 C,0,1.1981804795,-1.9606713035,-2.4675725756
 C,0,-1.2418982715,1.9499733911,-1.1619583686
 C,0,3.3588195024,-0.3952244796,3.0244968576
 C,0,4.2272877836,0.7981591624,-2.55138987
 C,0,-1.7156811366,0.003727587,0.2759112754
 C,0,4.8095283443,-0.9471816264,1.1186077191
 C,0,-0.966805647,2.7363384915,0.0108272146
 C,0,-0.1723921052,0.0047844987,-2.9376955566
 C,0,3.2656523325,3.3688048786,1.4047993584
 C,0,2.3394176622,2.9680132165,2.4425253336
 C,0,0.2072360935,1.4001429724,-3.0725344546
 C,0,1.9532884457,-0.4372546728,3.3887343271
 C,0,-0.6642221247,0.1705823327,2.5067709835
 C,0,3.7394761764,0.9968528856,2.8902256671
 C,0,0.6720018317,-2.7152087028,0.9691008842
 C,0,2.088711131,0.0769324248,-3.5252972002
 C,0,-1.4410094059,0.7531768023,1.3922892435
 C,0,-0.3152016813,2.3497220898,-2.2066005965
 C,0,3.8823503793,-1.3449030167,2.159083142
 C,0,2.4314183149,2.4363730132,-2.9173000521
 C,0,4.5217429039,-1.7410482294,-0.0615917486
 C,0,4.0507081886,2.8975347048,-1.2834683375
 C,0,0.9812294553,-0.8066656171,-3.2180150212
 C,0,1.6091796654,1.4435245383,-3.4372858279
 C,0,1.0472751331,-2.9419321311,-0.3313478706
 C,0,1.6735041505,-2.4109169029,1.9479913804
 C,0,4.3858194097,2.5922607779,1.1340456899
 C,0,3.3702787164,-0.2364974918,-3.0895677757
 C,0,0.1371316609,3.6253745441,-0.2918095765
 C,0,2.5698634479,1.8078265365,3.1717741827
 C,0,2.4985265993,3.9419736717,0.3126735625
 C,0,3.0252135341,-2.3827750786,1.6146289275
 C,0,5.1739706416,0.3875494961,0.9869130796
 H,0,-4.7853695429,-2.5608667913,-0.7018236953
 H,0,-3.7449761176,-1.3814587114,-1.4812747751
 H,0,-3.3016150536,-4.0409479148,-2.124620215
 H,0,-2.3929250309,-6.360492854,-2.2722481413
 H,0,-1.0922991565,-7.3263152543,-0.40091684
 H,0,-0.659227225,-5.9902243002,1.6671455063
 C,0,-2.7379452449,-4.466977435,-1.2913808286
 C,0,-2.220268005,-5.7660584292,-1.3721093116
 C,0,-1.4859156779,-6.3107626394,-0.3163216406
 C,0,-1.2467130884,-5.5695220099,0.8478740639
 C,0,-2.5172149385,-3.7449762263,-0.1267866313
 C,0,-1.7783922357,-4.2905568883,0.9301472598
 H,0,-3.0770572837,-1.5389178107,2.3384084453
 H,0,-3.8623073987,-3.1276384211,2.0775503137
 H,0,-1.3789548884,-3.5289995829,2.9792192405
 C,0,-3.0091402267,-2.4935471651,1.7967984191
 C,0,-2.8928191789,-2.3275743109,0.2670059661
 C,0,-1.6639612059,-3.2066955099,1.9716197491
 C,0,-9.4588722504,3.3086908305,-0.1505604746
 H,0,-9.372017589,5.0210759863,1.1930235195
 H,0,-10.4869941371,3.7411021753,1.7203271129
 H,0,-10.9402200718,4.817718482,0.3792673425
 C,0,-10.1000193778,4.2745671177,0.8374420551
 O,0,-6.5874017971,0.8993839118,0.1146925421
 C,0,-5.9238622322,-0.0227311974,-0.5779914085
 C,0,-4.8237907225,-0.6396206565,0.2388967744
 C,0,-4.0775532601,-1.7436335703,-0.4950696875
 H,0,-5.2793673309,-1.0135922712,1.1692077657
 H,0,-4.1618592853,0.1831696251,0.548073654
 O,0,-6.1938138662,-0.3075605645,-1.7279699584
 C,0,-8.2872341064,2.5387098322,0.4515751301
 C,0,-7.6682757047,1.5773889757,-0.5385940456
 H,0,-9.1113314559,3.8633339708,-1.0387765662
 H,0,-10.2160366245,2.5926521662,-0.5129389399
 H,0,-8.6260872024,1.9728189852,1.3355497204
 H,0,-7.5140317074,3.2442268436,0.7990117867
 H,0,-7.2771741796,2.1046667514,-1.4230121917
 H,0,-8.4005719884,0.8319418827,-0.8860663238
 Recover connectivity data from disk.

 GradGradGradGradGradGradGradGradGradGradGradGradGradGradGradGradGradGrad
 Berny optimization.
 Initialization pass.
                           ----------------------------
                           !    Initial Parameters    !
                           ! (Angstroms and Degrees)  !
 --------------------------                            --------------------------
 ! Name  Definition              Value          Derivative Info.                !
 --------------------------------------------------------------------------------
 ! R1    R(1,6)                  1.3936         estimate D2E/DX2                !
 ! R2    R(1,48)                 1.4494         estimate D2E/DX2                !
 ! R3    R(1,59)                 1.4386         estimate D2E/DX2                !
 ! R4    R(2,6)                  1.4493         estimate D2E/DX2                !
 ! R5    R(2,26)                 1.3879         estimate D2E/DX2                !
 ! R6    R(2,28)                 1.4496         estimate D2E/DX2                !
 ! R7    R(3,31)                 1.3896         estimate D2E/DX2                !
 ! R8    R(3,47)                 1.4491         estimate D2E/DX2                !
 ! R9    R(3,49)                 1.4503         estimate D2E/DX2                !
 ! R10   R(4,10)                 1.3929         estimate D2E/DX2                !
 ! R11   R(4,39)                 1.4391         estimate D2E/DX2                !
 ! R12   R(4,57)                 1.4494         estimate D2E/DX2                !
 ! R13   R(5,19)                 1.39           estimate D2E/DX2                !
 ! R14   R(5,45)                 1.4494         estimate D2E/DX2                !
 ! R15   R(5,56)                 1.451          estimate D2E/DX2                !
 ! R16   R(6,52)                 1.4417         estimate D2E/DX2                !
 ! R17   R(7,14)                 1.4517         estimate D2E/DX2                !
 ! R18   R(7,27)                 1.388          estimate D2E/DX2                !
 ! R19   R(7,37)                 1.4512         estimate D2E/DX2                !
 ! R20   R(8,22)                 1.3896         estimate D2E/DX2                !
 ! R21   R(8,23)                 1.4475         estimate D2E/DX2                !
 ! R22   R(8,31)                 1.4523         estimate D2E/DX2                !
 ! R23   R(9,12)                 1.4482         estimate D2E/DX2                !
 ! R24   R(9,25)                 1.4341         estimate D2E/DX2                !
 ! R25   R(9,35)                 1.3927         estimate D2E/DX2                !
 ! R26   R(10,27)                1.4493         estimate D2E/DX2                !
 ! R27   R(10,40)                1.4423         estimate D2E/DX2                !
 ! R28   R(11,17)                1.6041         estimate D2E/DX2                !
 ! R29   R(11,25)                1.5227         estimate D2E/DX2                !
 ! R30   R(11,32)                1.5249         estimate D2E/DX2                !
 ! R31   R(11,77)                1.5984         estimate D2E/DX2                !
 ! R32   R(12,29)                1.3922         estimate D2E/DX2                !
 ! R33   R(12,32)                1.4353         estimate D2E/DX2                !
 ! R34   R(13,27)                1.4492         estimate D2E/DX2                !
 ! R35   R(13,34)                1.393          estimate D2E/DX2                !
 ! R36   R(13,44)                1.4412         estimate D2E/DX2                !
 ! R37   R(14,56)                1.3896         estimate D2E/DX2                !
 ! R38   R(14,58)                1.4474         estimate D2E/DX2                !
 ! R39   R(15,25)                1.3736         estimate D2E/DX2                !
 ! R40   R(15,28)                1.4419         estimate D2E/DX2                !
 ! R41   R(15,52)                1.48           estimate D2E/DX2                !
 ! R42   R(16,19)                1.4492         estimate D2E/DX2                !
 ! R43   R(16,49)                1.4504         estimate D2E/DX2                !
 ! R44   R(16,58)                1.3897         estimate D2E/DX2                !
 ! R45   R(17,18)                1.5252         estimate D2E/DX2                !
 ! R46   R(17,42)                1.5208         estimate D2E/DX2                !
 ! R47   R(17,78)                1.5763         estimate D2E/DX2                !
 ! R48   R(18,24)                1.4361         estimate D2E/DX2                !
 ! R49   R(18,40)                1.3721         estimate D2E/DX2                !
 ! R50   R(19,47)                1.4506         estimate D2E/DX2                !
 ! R51   R(20,41)                1.3899         estimate D2E/DX2                !
 ! R52   R(20,54)                1.4493         estimate D2E/DX2                !
 ! R53   R(20,60)                1.4506         estimate D2E/DX2                !
 ! R54   R(21,22)                1.4502         estimate D2E/DX2                !
 ! R55   R(21,49)                1.3887         estimate D2E/DX2                !
 ! R56   R(21,54)                1.4504         estimate D2E/DX2                !
 ! R57   R(22,60)                1.4493         estimate D2E/DX2                !
 ! R58   R(23,26)                1.4515         estimate D2E/DX2                !
 ! R59   R(23,48)                1.3894         estimate D2E/DX2                !
 ! R60   R(24,39)                1.3927         estimate D2E/DX2                !
 ! R61   R(24,53)                1.4482         estimate D2E/DX2                !
 ! R62   R(26,55)                1.4515         estimate D2E/DX2                !
 ! R63   R(28,50)                1.3935         estimate D2E/DX2                !
 ! R64   R(29,34)                1.4386         estimate D2E/DX2                !
 ! R65   R(29,45)                1.4525         estimate D2E/DX2                !
 ! R66   R(30,39)                1.4526         estimate D2E/DX2                !
 ! R67   R(30,41)                1.4494         estimate D2E/DX2                !
 ! R68   R(30,46)                1.3874         estimate D2E/DX2                !
 ! R69   R(31,55)                1.4473         estimate D2E/DX2                !
 ! R70   R(32,44)                1.3724         estimate D2E/DX2                !
 ! R71   R(33,46)                1.4493         estimate D2E/DX2                !
 ! R72   R(33,48)                1.4512         estimate D2E/DX2                !
 ! R73   R(33,60)                1.3898         estimate D2E/DX2                !
 ! R74   R(34,56)                1.4494         estimate D2E/DX2                !
 ! R75   R(35,38)                1.4524         estimate D2E/DX2                !
 ! R76   R(35,50)                1.438          estimate D2E/DX2                !
 ! R77   R(36,37)                1.4476         estimate D2E/DX2                !
 ! R78   R(36,54)                1.3896         estimate D2E/DX2                !
 ! R79   R(36,58)                1.4525         estimate D2E/DX2                !
 ! R80   R(37,57)                1.3896         estimate D2E/DX2                !
 ! R81   R(38,45)                1.3873         estimate D2E/DX2                !
 ! R82   R(38,51)                1.4493         estimate D2E/DX2                !
 ! R83   R(40,44)                1.4781         estimate D2E/DX2                !
 ! R84   R(41,57)                1.4508         estimate D2E/DX2                !
 ! R85   R(42,52)                1.3724         estimate D2E/DX2                !
 ! R86   R(42,53)                1.4331         estimate D2E/DX2                !
 ! R87   R(43,50)                1.4497         estimate D2E/DX2                !
 ! R88   R(43,51)                1.451          estimate D2E/DX2                !
 ! R89   R(43,55)                1.3894         estimate D2E/DX2                !
 ! R90   R(46,59)                1.452          estimate D2E/DX2                !
 ! R91   R(47,51)                1.39           estimate D2E/DX2                !
 ! R92   R(53,59)                1.3925         estimate D2E/DX2                !
 ! R93   R(61,87)                1.1007         estimate D2E/DX2                !
 ! R94   R(62,87)                1.102          estimate D2E/DX2                !
 ! R95   R(63,67)                1.0925         estimate D2E/DX2                !
 ! R96   R(64,68)                1.0924         estimate D2E/DX2                !
 ! R97   R(65,69)                1.0924         estimate D2E/DX2                !
 ! R98   R(66,70)                1.0924         estimate D2E/DX2                !
 ! R99   R(67,68)                1.4008         estimate D2E/DX2                !
 ! R100  R(67,71)                1.3879         estimate D2E/DX2                !
 ! R101  R(68,69)                1.3967         estimate D2E/DX2                !
 ! R102  R(69,70)                1.4007         estimate D2E/DX2                !
 ! R103  R(70,72)                1.3875         estimate D2E/DX2                !
 ! R104  R(71,72)                1.4002         estimate D2E/DX2                !
 ! R105  R(71,77)                1.5183         estimate D2E/DX2                !
 ! R106  R(72,78)                1.5075         estimate D2E/DX2                !
 ! R107  R(73,76)                1.0997         estimate D2E/DX2                !
 ! R108  R(74,76)                1.0994         estimate D2E/DX2                !
 ! R109  R(75,78)                1.0956         estimate D2E/DX2                !
 ! R110  R(76,77)                1.5432         estimate D2E/DX2                !
 ! R111  R(76,78)                1.5325         estimate D2E/DX2                !
 ! R112  R(77,87)                1.5249         estimate D2E/DX2                !
 ! R113  R(79,83)                1.5232         estimate D2E/DX2                !
 ! R114  R(79,91)                1.5258         estimate D2E/DX2                !
 ! R115  R(79,93)                1.1033         estimate D2E/DX2                !
 ! R116  R(79,94)                1.1033         estimate D2E/DX2                !
 ! R117  R(80,83)                1.1017         estimate D2E/DX2                !
 ! R118  R(81,83)                1.1017         estimate D2E/DX2                !
 ! R119  R(82,83)                1.1004         estimate D2E/DX2                !
 ! R120  R(84,85)                1.3306         estimate D2E/DX2                !
 ! R121  R(84,92)                1.4334         estimate D2E/DX2                !
 ! R122  R(85,86)                1.5027         estimate D2E/DX2                !
 ! R123  R(85,90)                1.2151         estimate D2E/DX2                !
 ! R124  R(86,87)                1.5213         estimate D2E/DX2                !
 ! R125  R(86,88)                1.1013         estimate D2E/DX2                !
 ! R126  R(86,89)                1.1003         estimate D2E/DX2                !
 ! R127  R(91,92)                1.5125         estimate D2E/DX2                !
 ! R128  R(91,95)                1.1029         estimate D2E/DX2                !
 ! R129  R(91,96)                1.1029         estimate D2E/DX2                !
 ! R130  R(92,97)                1.1014         estimate D2E/DX2                !
 ! R131  R(92,98)                1.1012         estimate D2E/DX2                !
 ! A1    A(6,1,48)             119.9678         estimate D2E/DX2                !
 ! A2    A(6,1,59)             119.1783         estimate D2E/DX2                !
 ! A3    A(48,1,59)            108.0335         estimate D2E/DX2                !
 ! A4    A(6,2,26)             120.1809         estimate D2E/DX2                !
 ! A5    A(6,2,28)             108.1996         estimate D2E/DX2                !
 ! A6    A(26,2,28)            120.2437         estimate D2E/DX2                !
 ! A7    A(31,3,47)            119.9666         estimate D2E/DX2                !
 ! A8    A(31,3,49)            119.9361         estimate D2E/DX2                !
 ! A9    A(47,3,49)            108.0254         estimate D2E/DX2                !
 ! A10   A(10,4,39)            119.1283         estimate D2E/DX2                !
 ! A11   A(10,4,57)            119.9625         estimate D2E/DX2                !
 ! A12   A(39,4,57)            108.0993         estimate D2E/DX2                !
 ! A13   A(19,5,45)            119.9719         estimate D2E/DX2                !
 ! A14   A(19,5,56)            119.9913         estimate D2E/DX2                !
 ! A15   A(45,5,56)            107.8915         estimate D2E/DX2                !
 ! A16   A(1,6,2)              119.8561         estimate D2E/DX2                !
 ! A17   A(1,6,52)             120.6649         estimate D2E/DX2                !
 ! A18   A(2,6,52)             108.3384         estimate D2E/DX2                !
 ! A19   A(14,7,27)            119.9151         estimate D2E/DX2                !
 ! A20   A(14,7,37)            108.1381         estimate D2E/DX2                !
 ! A21   A(27,7,37)            119.8913         estimate D2E/DX2                !
 ! A22   A(22,8,23)            120.0655         estimate D2E/DX2                !
 ! A23   A(22,8,31)            119.9913         estimate D2E/DX2                !
 ! A24   A(23,8,31)            108.0763         estimate D2E/DX2                !
 ! A25   A(12,9,25)            107.8882         estimate D2E/DX2                !
 ! A26   A(12,9,35)            120.0373         estimate D2E/DX2                !
 ! A27   A(25,9,35)            121.4934         estimate D2E/DX2                !
 ! A28   A(4,10,27)            119.8206         estimate D2E/DX2                !
 ! A29   A(4,10,40)            120.6156         estimate D2E/DX2                !
 ! A30   A(27,10,40)           108.3563         estimate D2E/DX2                !
 ! A31   A(17,11,25)           114.2904         estimate D2E/DX2                !
 ! A32   A(17,11,32)           113.9127         estimate D2E/DX2                !
 ! A33   A(17,11,77)           102.2296         estimate D2E/DX2                !
 ! A34   A(25,11,32)            99.7948         estimate D2E/DX2                !
 ! A35   A(25,11,77)           113.7459         estimate D2E/DX2                !
 ! A36   A(32,11,77)           113.4562         estimate D2E/DX2                !
 ! A37   A(9,12,29)            120.0615         estimate D2E/DX2                !
 ! A38   A(9,12,32)            107.9537         estimate D2E/DX2                !
 ! A39   A(29,12,32)           121.391          estimate D2E/DX2                !
 ! A40   A(27,13,34)           119.9071         estimate D2E/DX2                !
 ! A41   A(27,13,44)           108.3312         estimate D2E/DX2                !
 ! A42   A(34,13,44)           120.6817         estimate D2E/DX2                !
 ! A43   A(7,14,56)            120.0209         estimate D2E/DX2                !
 ! A44   A(7,14,58)            107.8602         estimate D2E/DX2                !
 ! A45   A(56,14,58)           120.0761         estimate D2E/DX2                !
 ! A46   A(25,15,28)           120.2731         estimate D2E/DX2                !
 ! A47   A(25,15,52)           120.336          estimate D2E/DX2                !
 ! A48   A(28,15,52)           107.4476         estimate D2E/DX2                !
 ! A49   A(19,16,49)           108.0167         estimate D2E/DX2                !
 ! A50   A(19,16,58)           119.9741         estimate D2E/DX2                !
 ! A51   A(49,16,58)           119.9514         estimate D2E/DX2                !
 ! A52   A(11,17,18)           114.543          estimate D2E/DX2                !
 ! A53   A(11,17,42)           114.5786         estimate D2E/DX2                !
 ! A54   A(11,17,78)           102.2703         estimate D2E/DX2                !
 ! A55   A(18,17,42)           100.0075         estimate D2E/DX2                !
 ! A56   A(18,17,78)           112.5749         estimate D2E/DX2                !
 ! A57   A(42,17,78)           113.4208         estimate D2E/DX2                !
 ! A58   A(17,18,24)           110.2202         estimate D2E/DX2                !
 ! A59   A(17,18,40)           124.4448         estimate D2E/DX2                !
 ! A60   A(24,18,40)           119.0396         estimate D2E/DX2                !
 ! A61   A(5,19,16)            119.9952         estimate D2E/DX2                !
 ! A62   A(5,19,47)            119.9566         estimate D2E/DX2                !
 ! A63   A(16,19,47)           107.9996         estimate D2E/DX2                !
 ! A64   A(41,20,54)           120.0098         estimate D2E/DX2                !
 ! A65   A(41,20,60)           119.9858         estimate D2E/DX2                !
 ! A66   A(54,20,60)           107.9922         estimate D2E/DX2                !
 ! A67   A(22,21,49)           120.0689         estimate D2E/DX2                !
 ! A68   A(22,21,54)           107.9589         estimate D2E/DX2                !
 ! A69   A(49,21,54)           120.0574         estimate D2E/DX2                !
 ! A70   A(8,22,21)            119.9416         estimate D2E/DX2                !
 ! A71   A(8,22,60)            119.9597         estimate D2E/DX2                !
 ! A72   A(21,22,60)           108.029          estimate D2E/DX2                !
 ! A73   A(8,23,26)            107.8614         estimate D2E/DX2                !
 ! A74   A(8,23,48)            120.0914         estimate D2E/DX2                !
 ! A75   A(26,23,48)           120.0154         estimate D2E/DX2                !
 ! A76   A(18,24,39)           121.4            estimate D2E/DX2                !
 ! A77   A(18,24,53)           108.0283         estimate D2E/DX2                !
 ! A78   A(39,24,53)           119.9261         estimate D2E/DX2                !
 ! A79   A(9,25,11)            110.5718         estimate D2E/DX2                !
 ! A80   A(9,25,15)            119.0843         estimate D2E/DX2                !
 ! A81   A(11,25,15)           124.1402         estimate D2E/DX2                !
 ! A82   A(2,26,23)            119.9377         estimate D2E/DX2                !
 ! A83   A(2,26,55)            119.9232         estimate D2E/DX2                !
 ! A84   A(23,26,55)           108.1149         estimate D2E/DX2                !
 ! A85   A(7,27,10)            120.2502         estimate D2E/DX2                !
 ! A86   A(7,27,13)            120.1673         estimate D2E/DX2                !
 ! A87   A(10,27,13)           108.1986         estimate D2E/DX2                !
 ! A88   A(2,28,15)            108.4151         estimate D2E/DX2                !
 ! A89   A(2,28,50)            119.7865         estimate D2E/DX2                !
 ! A90   A(15,28,50)           120.6704         estimate D2E/DX2                !
 ! A91   A(12,29,34)           119.3708         estimate D2E/DX2                !
 ! A92   A(12,29,45)           119.8816         estimate D2E/DX2                !
 ! A93   A(34,29,45)           108.2931         estimate D2E/DX2                !
 ! A94   A(39,30,41)           107.7668         estimate D2E/DX2                !
 ! A95   A(39,30,46)           120.1144         estimate D2E/DX2                !
 ! A96   A(41,30,46)           120.0352         estimate D2E/DX2                !
 ! A97   A(3,31,8)             120.0024         estimate D2E/DX2                !
 ! A98   A(3,31,55)            120.0498         estimate D2E/DX2                !
 ! A99   A(8,31,55)            108.0693         estimate D2E/DX2                !
 ! A100  A(11,32,12)           110.3849         estimate D2E/DX2                !
 ! A101  A(11,32,44)           124.6364         estimate D2E/DX2                !
 ! A102  A(12,32,44)           119.0742         estimate D2E/DX2                !
 ! A103  A(46,33,48)           107.8708         estimate D2E/DX2                !
 ! A104  A(46,33,60)           119.9553         estimate D2E/DX2                !
 ! A105  A(48,33,60)           120.0196         estimate D2E/DX2                !
 ! A106  A(13,34,29)           119.0761         estimate D2E/DX2                !
 ! A107  A(13,34,56)           119.9413         estimate D2E/DX2                !
 ! A108  A(29,34,56)           108.103          estimate D2E/DX2                !
 ! A109  A(9,35,38)            119.87           estimate D2E/DX2                !
 ! A110  A(9,35,50)            119.2646         estimate D2E/DX2                !
 ! A111  A(38,35,50)           108.3216         estimate D2E/DX2                !
 ! A112  A(37,36,54)           120.0487         estimate D2E/DX2                !
 ! A113  A(37,36,58)           108.0797         estimate D2E/DX2                !
 ! A114  A(54,36,58)           119.9829         estimate D2E/DX2                !
 ! A115  A(7,37,36)            107.8562         estimate D2E/DX2                !
 ! A116  A(7,37,57)            119.9957         estimate D2E/DX2                !
 ! A117  A(36,37,57)           120.0841         estimate D2E/DX2                !
 ! A118  A(35,38,45)           120.0827         estimate D2E/DX2                !
 ! A119  A(35,38,51)           107.7569         estimate D2E/DX2                !
 ! A120  A(45,38,51)           120.0603         estimate D2E/DX2                !
 ! A121  A(4,39,24)            119.3463         estimate D2E/DX2                !
 ! A122  A(4,39,30)            108.2677         estimate D2E/DX2                !
 ! A123  A(24,39,30)           119.9029         estimate D2E/DX2                !
 ! A124  A(10,40,18)           120.4207         estimate D2E/DX2                !
 ! A125  A(10,40,44)           107.491          estimate D2E/DX2                !
 ! A126  A(18,40,44)           120.0465         estimate D2E/DX2                !
 ! A127  A(20,41,30)           119.9658         estimate D2E/DX2                !
 ! A128  A(20,41,57)           119.9894         estimate D2E/DX2                !
 ! A129  A(30,41,57)           107.888          estimate D2E/DX2                !
 ! A130  A(17,42,52)           124.171          estimate D2E/DX2                !
 ! A131  A(17,42,53)           110.5417         estimate D2E/DX2                !
 ! A132  A(52,42,53)           119.4219         estimate D2E/DX2                !
 ! A133  A(50,43,51)           107.9826         estimate D2E/DX2                !
 ! A134  A(50,43,55)           120.0438         estimate D2E/DX2                !
 ! A135  A(51,43,55)           119.8863         estimate D2E/DX2                !
 ! A136  A(13,44,32)           120.361          estimate D2E/DX2                !
 ! A137  A(13,44,40)           107.6224         estimate D2E/DX2                !
 ! A138  A(32,44,40)           120.2168         estimate D2E/DX2                !
 ! A139  A(5,45,29)            107.7475         estimate D2E/DX2                !
 ! A140  A(5,45,38)            120.0656         estimate D2E/DX2                !
 ! A141  A(29,45,38)           120.0533         estimate D2E/DX2                !
 ! A142  A(30,46,33)           120.0909         estimate D2E/DX2                !
 ! A143  A(30,46,59)           120.0271         estimate D2E/DX2                !
 ! A144  A(33,46,59)           107.7348         estimate D2E/DX2                !
 ! A145  A(3,47,19)            107.9974         estimate D2E/DX2                !
 ! A146  A(3,47,51)            120.0006         estimate D2E/DX2                !
 ! A147  A(19,47,51)           119.9825         estimate D2E/DX2                !
 ! A148  A(1,48,23)            120.0309         estimate D2E/DX2                !
 ! A149  A(1,48,33)            108.0019         estimate D2E/DX2                !
 ! A150  A(23,48,33)           119.8734         estimate D2E/DX2                !
 ! A151  A(3,49,16)            107.9609         estimate D2E/DX2                !
 ! A152  A(3,49,21)            120.058          estimate D2E/DX2                !
 ! A153  A(16,49,21)           120.0568         estimate D2E/DX2                !
 ! A154  A(28,50,35)           119.1574         estimate D2E/DX2                !
 ! A155  A(28,50,43)           119.9962         estimate D2E/DX2                !
 ! A156  A(35,50,43)           108.0736         estimate D2E/DX2                !
 ! A157  A(38,51,43)           107.865          estimate D2E/DX2                !
 ! A158  A(38,51,47)           119.9629         estimate D2E/DX2                !
 ! A159  A(43,51,47)           119.9951         estimate D2E/DX2                !
 ! A160  A(6,52,15)            107.599          estimate D2E/DX2                !
 ! A161  A(6,52,42)            120.1111         estimate D2E/DX2                !
 ! A162  A(15,52,42)           120.1513         estimate D2E/DX2                !
 ! A163  A(24,53,42)           107.9119         estimate D2E/DX2                !
 ! A164  A(24,53,59)           120.1678         estimate D2E/DX2                !
 ! A165  A(42,53,59)           121.2738         estimate D2E/DX2                !
 ! A166  A(20,54,21)           108.0256         estimate D2E/DX2                !
 ! A167  A(20,54,36)           119.9641         estimate D2E/DX2                !
 ! A168  A(21,54,36)           119.9595         estimate D2E/DX2                !
 ! A169  A(26,55,31)           107.8743         estimate D2E/DX2                !
 ! A170  A(26,55,43)           119.9953         estimate D2E/DX2                !
 ! A171  A(31,55,43)           120.1013         estimate D2E/DX2                !
 ! A172  A(5,56,14)            119.9085         estimate D2E/DX2                !
 ! A173  A(5,56,34)            107.964          estimate D2E/DX2                !
 ! A174  A(14,56,34)           120.0349         estimate D2E/DX2                !
 ! A175  A(4,57,37)            120.0686         estimate D2E/DX2                !
 ! A176  A(4,57,41)            107.9774         estimate D2E/DX2                !
 ! A177  A(37,57,41)           119.9036         estimate D2E/DX2                !
 ! A178  A(14,58,16)           120.0546         estimate D2E/DX2                !
 ! A179  A(14,58,36)           108.0622         estimate D2E/DX2                !
 ! A180  A(16,58,36)           119.9905         estimate D2E/DX2                !
 ! A181  A(1,59,46)            108.3584         estimate D2E/DX2                !
 ! A182  A(1,59,53)            119.3078         estimate D2E/DX2                !
 ! A183  A(46,59,53)           119.8482         estimate D2E/DX2                !
 ! A184  A(20,60,22)           107.9942         estimate D2E/DX2                !
 ! A185  A(20,60,33)           119.9669         estimate D2E/DX2                !
 ! A186  A(22,60,33)           119.9901         estimate D2E/DX2                !
 ! A187  A(63,67,68)           120.5563         estimate D2E/DX2                !
 ! A188  A(63,67,71)           121.2772         estimate D2E/DX2                !
 ! A189  A(68,67,71)           118.1663         estimate D2E/DX2                !
 ! A190  A(64,68,67)           119.5853         estimate D2E/DX2                !
 ! A191  A(64,68,69)           119.5878         estimate D2E/DX2                !
 ! A192  A(67,68,69)           120.8269         estimate D2E/DX2                !
 ! A193  A(65,69,68)           119.5685         estimate D2E/DX2                !
 ! A194  A(65,69,70)           119.6546         estimate D2E/DX2                !
 ! A195  A(68,69,70)           120.7769         estimate D2E/DX2                !
 ! A196  A(66,70,69)           120.7556         estimate D2E/DX2                !
 ! A197  A(66,70,72)           121.1041         estimate D2E/DX2                !
 ! A198  A(69,70,72)           118.1402         estimate D2E/DX2                !
 ! A199  A(67,71,72)           120.9709         estimate D2E/DX2                !
 ! A200  A(67,71,77)           131.6007         estimate D2E/DX2                !
 ! A201  A(72,71,77)           107.3678         estimate D2E/DX2                !
 ! A202  A(70,72,71)           121.1034         estimate D2E/DX2                !
 ! A203  A(70,72,78)           132.4242         estimate D2E/DX2                !
 ! A204  A(71,72,78)           106.3436         estimate D2E/DX2                !
 ! A205  A(73,76,74)           109.0851         estimate D2E/DX2                !
 ! A206  A(73,76,77)           113.5495         estimate D2E/DX2                !
 ! A207  A(73,76,78)           113.7028         estimate D2E/DX2                !
 ! A208  A(74,76,77)           111.942          estimate D2E/DX2                !
 ! A209  A(74,76,78)           112.5582         estimate D2E/DX2                !
 ! A210  A(77,76,78)            95.5648         estimate D2E/DX2                !
 ! A211  A(11,77,71)           104.6867         estimate D2E/DX2                !
 ! A212  A(11,77,76)           100.1173         estimate D2E/DX2                !
 ! A213  A(11,77,87)           116.102          estimate D2E/DX2                !
 ! A214  A(71,77,76)           100.0996         estimate D2E/DX2                !
 ! A215  A(71,77,87)           114.8392         estimate D2E/DX2                !
 ! A216  A(76,77,87)           118.5579         estimate D2E/DX2                !
 ! A217  A(17,78,72)           106.1738         estimate D2E/DX2                !
 ! A218  A(17,78,75)           112.3791         estimate D2E/DX2                !
 ! A219  A(17,78,76)           101.1437         estimate D2E/DX2                !
 ! A220  A(72,78,75)           116.3342         estimate D2E/DX2                !
 ! A221  A(72,78,76)           100.9023         estimate D2E/DX2                !
 ! A222  A(75,78,76)           118.0431         estimate D2E/DX2                !
 ! A223  A(83,79,91)           112.7824         estimate D2E/DX2                !
 ! A224  A(83,79,93)           109.6329         estimate D2E/DX2                !
 ! A225  A(83,79,94)           109.6155         estimate D2E/DX2                !
 ! A226  A(91,79,93)           109.2379         estimate D2E/DX2                !
 ! A227  A(91,79,94)           109.2123         estimate D2E/DX2                !
 ! A228  A(93,79,94)           106.141          estimate D2E/DX2                !
 ! A229  A(79,83,80)           111.1546         estimate D2E/DX2                !
 ! A230  A(79,83,81)           111.1368         estimate D2E/DX2                !
 ! A231  A(79,83,82)           111.3652         estimate D2E/DX2                !
 ! A232  A(80,83,81)           107.5511         estimate D2E/DX2                !
 ! A233  A(80,83,82)           107.727          estimate D2E/DX2                !
 ! A234  A(81,83,82)           107.7267         estimate D2E/DX2                !
 ! A235  A(85,84,92)           117.8118         estimate D2E/DX2                !
 ! A236  A(84,85,86)           111.5049         estimate D2E/DX2                !
 ! A237  A(84,85,90)           122.9808         estimate D2E/DX2                !
 ! A238  A(86,85,90)           125.5141         estimate D2E/DX2                !
 ! A239  A(85,86,87)           113.2499         estimate D2E/DX2                !
 ! A240  A(85,86,88)           107.2045         estimate D2E/DX2                !
 ! A241  A(85,86,89)           106.6288         estimate D2E/DX2                !
 ! A242  A(87,86,88)           111.348          estimate D2E/DX2                !
 ! A243  A(87,86,89)           112.5275         estimate D2E/DX2                !
 ! A244  A(88,86,89)           105.3916         estimate D2E/DX2                !
 ! A245  A(61,87,62)           105.663          estimate D2E/DX2                !
 ! A246  A(61,87,77)           108.0082         estimate D2E/DX2                !
 ! A247  A(61,87,86)           108.2994         estimate D2E/DX2                !
 ! A248  A(62,87,77)           109.7931         estimate D2E/DX2                !
 ! A249  A(62,87,86)           109.9559         estimate D2E/DX2                !
 ! A250  A(77,87,86)           114.7009         estimate D2E/DX2                !
 ! A251  A(79,91,92)           112.1245         estimate D2E/DX2                !
 ! A252  A(79,91,95)           109.8334         estimate D2E/DX2                !
 ! A253  A(79,91,96)           109.8673         estimate D2E/DX2                !
 ! A254  A(92,91,95)           108.9239         estimate D2E/DX2                !
 ! A255  A(92,91,96)           109.0215         estimate D2E/DX2                !
 ! A256  A(95,91,96)           106.9254         estimate D2E/DX2                !
 ! A257  A(84,92,91)           108.1099         estimate D2E/DX2                !
 ! A258  A(84,92,97)           108.9431         estimate D2E/DX2                !
 ! A259  A(84,92,98)           108.9685         estimate D2E/DX2                !
 ! A260  A(91,92,97)           111.5128         estimate D2E/DX2                !
 ! A261  A(91,92,98)           111.3878         estimate D2E/DX2                !
 ! A262  A(97,92,98)           107.8676         estimate D2E/DX2                !
 ! D1    D(48,1,6,2)             1.1111         estimate D2E/DX2                !
 ! D2    D(48,1,6,52)         -138.5383         estimate D2E/DX2                !
 ! D3    D(59,1,6,2)           138.1024         estimate D2E/DX2                !
 ! D4    D(59,1,6,52)           -1.547          estimate D2E/DX2                !
 ! D5    D(6,1,48,23)           -0.99           estimate D2E/DX2                !
 ! D6    D(6,1,48,33)          141.456          estimate D2E/DX2                !
 ! D7    D(59,1,48,23)        -142.2107         estimate D2E/DX2                !
 ! D8    D(59,1,48,33)           0.2353         estimate D2E/DX2                !
 ! D9    D(6,1,59,46)         -141.8436         estimate D2E/DX2                !
 ! D10   D(6,1,59,53)            0.1229         estimate D2E/DX2                !
 ! D11   D(48,1,59,46)          -0.2652         estimate D2E/DX2                !
 ! D12   D(48,1,59,53)         141.7013         estimate D2E/DX2                !
 ! D13   D(26,2,6,1)            -0.3563         estimate D2E/DX2                !
 ! D14   D(26,2,6,52)          143.719          estimate D2E/DX2                !
 ! D15   D(28,2,6,1)          -143.9233         estimate D2E/DX2                !
 ! D16   D(28,2,6,52)            0.152          estimate D2E/DX2                !
 ! D17   D(6,2,26,23)           -0.529          estimate D2E/DX2                !
 ! D18   D(6,2,26,55)         -138.727          estimate D2E/DX2                !
 ! D19   D(28,2,26,23)         138.6983         estimate D2E/DX2                !
 ! D20   D(28,2,26,55)           0.5003         estimate D2E/DX2                !
 ! D21   D(6,2,28,15)           -0.1638         estimate D2E/DX2                !
 ! D22   D(6,2,28,50)          143.9369         estimate D2E/DX2                !
 ! D23   D(26,2,28,15)        -143.7039         estimate D2E/DX2                !
 ! D24   D(26,2,28,50)           0.3968         estimate D2E/DX2                !
 ! D25   D(47,3,31,8)         -138.4143         estimate D2E/DX2                !
 ! D26   D(47,3,31,55)          -0.0134         estimate D2E/DX2                !
 ! D27   D(49,3,31,8)           -0.3232         estimate D2E/DX2                !
 ! D28   D(49,3,31,55)         138.0777         estimate D2E/DX2                !
 ! D29   D(31,3,47,19)         142.4453         estimate D2E/DX2                !
 ! D30   D(31,3,47,51)          -0.1441         estimate D2E/DX2                !
 ! D31   D(49,3,47,19)          -0.0586         estimate D2E/DX2                !
 ! D32   D(49,3,47,51)        -142.648          estimate D2E/DX2                !
 ! D33   D(31,3,49,16)        -142.4169         estimate D2E/DX2                !
 ! D34   D(31,3,49,21)           0.3252         estimate D2E/DX2                !
 ! D35   D(47,3,49,16)           0.1005         estimate D2E/DX2                !
 ! D36   D(47,3,49,21)         142.8426         estimate D2E/DX2                !
 ! D37   D(39,4,10,27)        -138.0884         estimate D2E/DX2                !
 ! D38   D(39,4,10,40)           1.4618         estimate D2E/DX2                !
 ! D39   D(57,4,10,27)          -1.0558         estimate D2E/DX2                !
 ! D40   D(57,4,10,40)         138.4944         estimate D2E/DX2                !
 ! D41   D(10,4,39,24)          -0.1108         estimate D2E/DX2                !
 ! D42   D(10,4,39,30)         141.876          estimate D2E/DX2                !
 ! D43   D(57,4,39,24)        -141.7048         estimate D2E/DX2                !
 ! D44   D(57,4,39,30)           0.282          estimate D2E/DX2                !
 ! D45   D(10,4,57,37)           1.0218         estimate D2E/DX2                !
 ! D46   D(10,4,57,41)        -141.4913         estimate D2E/DX2                !
 ! D47   D(39,4,57,37)         142.2384         estimate D2E/DX2                !
 ! D48   D(39,4,57,41)          -0.2747         estimate D2E/DX2                !
 ! D49   D(45,5,19,16)        -138.0279         estimate D2E/DX2                !
 ! D50   D(45,5,19,47)           0.0882         estimate D2E/DX2                !
 ! D51   D(56,5,19,16)          -0.0996         estimate D2E/DX2                !
 ! D52   D(56,5,19,47)         138.0166         estimate D2E/DX2                !
 ! D53   D(19,5,45,29)         142.3355         estimate D2E/DX2                !
 ! D54   D(19,5,45,38)          -0.1173         estimate D2E/DX2                !
 ! D55   D(56,5,45,29)          -0.0872         estimate D2E/DX2                !
 ! D56   D(56,5,45,38)        -142.54           estimate D2E/DX2                !
 ! D57   D(19,5,56,14)          -0.0093         estimate D2E/DX2                !
 ! D58   D(19,5,56,34)        -142.5251         estimate D2E/DX2                !
 ! D59   D(45,5,56,14)         142.4048         estimate D2E/DX2                !
 ! D60   D(45,5,56,34)          -0.111          estimate D2E/DX2                !
 ! D61   D(1,6,52,15)          143.6491         estimate D2E/DX2                !
 ! D62   D(1,6,52,42)            1.1724         estimate D2E/DX2                !
 ! D63   D(2,6,52,15)           -0.0821         estimate D2E/DX2                !
 ! D64   D(2,6,52,42)         -142.5589         estimate D2E/DX2                !
 ! D65   D(27,7,14,56)           0.6613         estimate D2E/DX2                !
 ! D66   D(27,7,14,58)        -141.9278         estimate D2E/DX2                !
 ! D67   D(37,7,14,56)         143.1762         estimate D2E/DX2                !
 ! D68   D(37,7,14,58)           0.5871         estimate D2E/DX2                !
 ! D69   D(14,7,27,10)         138.76           estimate D2E/DX2                !
 ! D70   D(14,7,27,13)          -0.4542         estimate D2E/DX2                !
 ! D71   D(37,7,27,10)           0.5999         estimate D2E/DX2                !
 ! D72   D(37,7,27,13)        -138.6143         estimate D2E/DX2                !
 ! D73   D(14,7,37,36)          -0.5952         estimate D2E/DX2                !
 ! D74   D(14,7,37,57)        -143.1604         estimate D2E/DX2                !
 ! D75   D(27,7,37,36)         141.9301         estimate D2E/DX2                !
 ! D76   D(27,7,37,57)          -0.635          estimate D2E/DX2                !
 ! D77   D(23,8,22,21)        -138.0705         estimate D2E/DX2                !
 ! D78   D(23,8,22,60)           0.0254         estimate D2E/DX2                !
 ! D79   D(31,8,22,21)           0.3506         estimate D2E/DX2                !
 ! D80   D(31,8,22,60)         138.4466         estimate D2E/DX2                !
 ! D81   D(22,8,23,26)         142.4174         estimate D2E/DX2                !
 ! D82   D(22,8,23,48)          -0.1591         estimate D2E/DX2                !
 ! D83   D(31,8,23,26)          -0.3804         estimate D2E/DX2                !
 ! D84   D(31,8,23,48)        -142.9569         estimate D2E/DX2                !
 ! D85   D(22,8,31,3)           -0.0149         estimate D2E/DX2                !
 ! D86   D(22,8,31,55)        -142.8227         estimate D2E/DX2                !
 ! D87   D(23,8,31,3)          142.8154         estimate D2E/DX2                !
 ! D88   D(23,8,31,55)           0.0076         estimate D2E/DX2                !
 ! D89   D(25,9,12,29)         145.3172         estimate D2E/DX2                !
 ! D90   D(25,9,12,32)           0.2148         estimate D2E/DX2                !
 ! D91   D(35,9,12,29)           0.1598         estimate D2E/DX2                !
 ! D92   D(35,9,12,32)        -144.9426         estimate D2E/DX2                !
 ! D93   D(12,9,25,11)          11.6294         estimate D2E/DX2                !
 ! D94   D(12,9,25,15)        -141.8405         estimate D2E/DX2                !
 ! D95   D(35,9,25,11)         156.1764         estimate D2E/DX2                !
 ! D96   D(35,9,25,15)           2.7066         estimate D2E/DX2                !
 ! D97   D(12,9,35,38)           0.8433         estimate D2E/DX2                !
 ! D98   D(12,9,35,50)         138.3514         estimate D2E/DX2                !
 ! D99   D(25,9,35,38)        -139.5416         estimate D2E/DX2                !
 ! D100  D(25,9,35,50)          -2.0336         estimate D2E/DX2                !
 ! D101  D(4,10,27,7)            0.2496         estimate D2E/DX2                !
 ! D102  D(4,10,27,13)         143.7727         estimate D2E/DX2                !
 ! D103  D(40,10,27,7)        -143.7156         estimate D2E/DX2                !
 ! D104  D(40,10,27,13)         -0.1924         estimate D2E/DX2                !
 ! D105  D(4,10,40,18)          -0.8527         estimate D2E/DX2                !
 ! D106  D(4,10,40,44)        -143.397          estimate D2E/DX2                !
 ! D107  D(27,10,40,18)        142.7735         estimate D2E/DX2                !
 ! D108  D(27,10,40,44)          0.2292         estimate D2E/DX2                !
 ! D109  D(25,11,17,18)        114.6099         estimate D2E/DX2                !
 ! D110  D(25,11,17,42)         -0.1572         estimate D2E/DX2                !
 ! D111  D(25,11,17,78)       -123.3035         estimate D2E/DX2                !
 ! D112  D(32,11,17,18)          0.7636         estimate D2E/DX2                !
 ! D113  D(32,11,17,42)       -114.0034         estimate D2E/DX2                !
 ! D114  D(32,11,17,78)        122.8502         estimate D2E/DX2                !
 ! D115  D(77,11,17,18)       -122.0318         estimate D2E/DX2                !
 ! D116  D(77,11,17,42)        123.2012         estimate D2E/DX2                !
 ! D117  D(77,11,17,78)          0.0548         estimate D2E/DX2                !
 ! D118  D(17,11,25,9)        -139.4669         estimate D2E/DX2                !
 ! D119  D(17,11,25,15)         12.3934         estimate D2E/DX2                !
 ! D120  D(32,11,25,9)         -17.5151         estimate D2E/DX2                !
 ! D121  D(32,11,25,15)        134.3453         estimate D2E/DX2                !
 ! D122  D(77,11,25,9)         103.6324         estimate D2E/DX2                !
 ! D123  D(77,11,25,15)       -104.5072         estimate D2E/DX2                !
 ! D124  D(17,11,32,12)        139.8401         estimate D2E/DX2                !
 ! D125  D(17,11,32,44)        -12.6299         estimate D2E/DX2                !
 ! D126  D(25,11,32,12)         17.6187         estimate D2E/DX2                !
 ! D127  D(25,11,32,44)       -134.8512         estimate D2E/DX2                !
 ! D128  D(77,11,32,12)       -103.7373         estimate D2E/DX2                !
 ! D129  D(77,11,32,44)        103.7927         estimate D2E/DX2                !
 ! D130  D(17,11,77,71)        -67.884          estimate D2E/DX2                !
 ! D131  D(17,11,77,76)         35.467          estimate D2E/DX2                !
 ! D132  D(17,11,77,87)        164.3823         estimate D2E/DX2                !
 ! D133  D(25,11,77,71)         55.8404         estimate D2E/DX2                !
 ! D134  D(25,11,77,76)        159.1914         estimate D2E/DX2                !
 ! D135  D(25,11,77,87)        -71.8933         estimate D2E/DX2                !
 ! D136  D(32,11,77,71)        169.0117         estimate D2E/DX2                !
 ! D137  D(32,11,77,76)        -87.6374         estimate D2E/DX2                !
 ! D138  D(32,11,77,87)         41.2779         estimate D2E/DX2                !
 ! D139  D(9,12,29,34)        -138.6709         estimate D2E/DX2                !
 ! D140  D(9,12,29,45)          -1.0432         estimate D2E/DX2                !
 ! D141  D(32,12,29,34)          1.7181         estimate D2E/DX2                !
 ! D142  D(32,12,29,45)        139.3457         estimate D2E/DX2                !
 ! D143  D(9,12,32,11)         -11.9516         estimate D2E/DX2                !
 ! D144  D(9,12,32,44)         142.255          estimate D2E/DX2                !
 ! D145  D(29,12,32,11)       -156.497          estimate D2E/DX2                !
 ! D146  D(29,12,32,44)         -2.2904         estimate D2E/DX2                !
 ! D147  D(34,13,27,7)          -0.5274         estimate D2E/DX2                !
 ! D148  D(34,13,27,10)       -144.0862         estimate D2E/DX2                !
 ! D149  D(44,13,27,7)         143.637          estimate D2E/DX2                !
 ! D150  D(44,13,27,10)          0.0781         estimate D2E/DX2                !
 ! D151  D(27,13,34,29)        138.2236         estimate D2E/DX2                !
 ! D152  D(27,13,34,56)          1.2899         estimate D2E/DX2                !
 ! D153  D(44,13,34,29)         -1.5198         estimate D2E/DX2                !
 ! D154  D(44,13,34,56)       -138.4535         estimate D2E/DX2                !
 ! D155  D(27,13,44,32)       -142.8817         estimate D2E/DX2                !
 ! D156  D(27,13,44,40)          0.063          estimate D2E/DX2                !
 ! D157  D(34,13,44,32)          0.9538         estimate D2E/DX2                !
 ! D158  D(34,13,44,40)        143.8986         estimate D2E/DX2                !
 ! D159  D(7,14,56,5)         -137.9338         estimate D2E/DX2                !
 ! D160  D(7,14,56,34)           0.1021         estimate D2E/DX2                !
 ! D161  D(58,14,56,5)           0.1365         estimate D2E/DX2                !
 ! D162  D(58,14,56,34)        138.1725         estimate D2E/DX2                !
 ! D163  D(7,14,58,16)         142.4087         estimate D2E/DX2                !
 ! D164  D(7,14,58,36)          -0.3541         estimate D2E/DX2                !
 ! D165  D(56,14,58,16)         -0.156          estimate D2E/DX2                !
 ! D166  D(56,14,58,36)       -142.9188         estimate D2E/DX2                !
 ! D167  D(28,15,25,9)          -1.2502         estimate D2E/DX2                !
 ! D168  D(28,15,25,11)       -150.9017         estimate D2E/DX2                !
 ! D169  D(52,15,25,9)         136.81           estimate D2E/DX2                !
 ! D170  D(52,15,25,11)        -12.8415         estimate D2E/DX2                !
 ! D171  D(25,15,28,2)         142.9078         estimate D2E/DX2                !
 ! D172  D(25,15,28,50)         -0.8175         estimate D2E/DX2                !
 ! D173  D(52,15,28,2)           0.112          estimate D2E/DX2                !
 ! D174  D(52,15,28,50)       -143.6133         estimate D2E/DX2                !
 ! D175  D(25,15,52,6)        -142.7863         estimate D2E/DX2                !
 ! D176  D(25,15,52,42)         -0.3275         estimate D2E/DX2                !
 ! D177  D(28,15,52,6)          -0.0185         estimate D2E/DX2                !
 ! D178  D(28,15,52,42)        142.4404         estimate D2E/DX2                !
 ! D179  D(49,16,19,5)         142.6086         estimate D2E/DX2                !
 ! D180  D(49,16,19,47)          0.0678         estimate D2E/DX2                !
 ! D181  D(58,16,19,5)           0.0803         estimate D2E/DX2                !
 ! D182  D(58,16,19,47)       -142.4604         estimate D2E/DX2                !
 ! D183  D(19,16,49,3)          -0.104          estimate D2E/DX2                !
 ! D184  D(19,16,49,21)       -142.8466         estimate D2E/DX2                !
 ! D185  D(58,16,49,3)         142.4342         estimate D2E/DX2                !
 ! D186  D(58,16,49,21)         -0.3084         estimate D2E/DX2                !
 ! D187  D(19,16,58,14)          0.0468         estimate D2E/DX2                !
 ! D188  D(19,16,58,36)        138.4234         estimate D2E/DX2                !
 ! D189  D(49,16,58,14)       -138.0623         estimate D2E/DX2                !
 ! D190  D(49,16,58,36)          0.3143         estimate D2E/DX2                !
 ! D191  D(11,17,18,24)       -140.2193         estimate D2E/DX2                !
 ! D192  D(11,17,18,40)         11.4106         estimate D2E/DX2                !
 ! D193  D(42,17,18,24)        -17.2016         estimate D2E/DX2                !
 ! D194  D(42,17,18,40)        134.4283         estimate D2E/DX2                !
 ! D195  D(78,17,18,24)        103.4941         estimate D2E/DX2                !
 ! D196  D(78,17,18,40)       -104.8761         estimate D2E/DX2                !
 ! D197  D(11,17,42,52)        -12.3337         estimate D2E/DX2                !
 ! D198  D(11,17,42,53)        140.343          estimate D2E/DX2                !
 ! D199  D(18,17,42,52)       -135.3263         estimate D2E/DX2                !
 ! D200  D(18,17,42,53)         17.3503         estimate D2E/DX2                !
 ! D201  D(78,17,42,52)        104.5902         estimate D2E/DX2                !
 ! D202  D(78,17,42,53)       -102.7332         estimate D2E/DX2                !
 ! D203  D(11,17,78,72)         68.9585         estimate D2E/DX2                !
 ! D204  D(11,17,78,75)       -162.8039         estimate D2E/DX2                !
 ! D205  D(11,17,78,76)        -35.9837         estimate D2E/DX2                !
 ! D206  D(18,17,78,72)       -167.6208         estimate D2E/DX2                !
 ! D207  D(18,17,78,75)        -39.3832         estimate D2E/DX2                !
 ! D208  D(18,17,78,76)         87.437          estimate D2E/DX2                !
 ! D209  D(42,17,78,72)        -54.9657         estimate D2E/DX2                !
 ! D210  D(42,17,78,75)         73.272          estimate D2E/DX2                !
 ! D211  D(42,17,78,76)       -159.9079         estimate D2E/DX2                !
 ! D212  D(17,18,24,39)        155.8506         estimate D2E/DX2                !
 ! D213  D(17,18,24,53)         11.4289         estimate D2E/DX2                !
 ! D214  D(40,18,24,39)          2.4789         estimate D2E/DX2                !
 ! D215  D(40,18,24,53)       -141.9428         estimate D2E/DX2                !
 ! D216  D(17,18,40,10)       -150.4314         estimate D2E/DX2                !
 ! D217  D(17,18,40,44)        -12.5043         estimate D2E/DX2                !
 ! D218  D(24,18,40,10)         -1.095          estimate D2E/DX2                !
 ! D219  D(24,18,40,44)        136.8321         estimate D2E/DX2                !
 ! D220  D(5,19,47,3)         -142.5635         estimate D2E/DX2                !
 ! D221  D(5,19,47,51)           0.0339         estimate D2E/DX2                !
 ! D222  D(16,19,47,3)          -0.0057         estimate D2E/DX2                !
 ! D223  D(16,19,47,51)        142.5917         estimate D2E/DX2                !
 ! D224  D(54,20,41,30)        138.0371         estimate D2E/DX2                !
 ! D225  D(54,20,41,57)          0.1274         estimate D2E/DX2                !
 ! D226  D(60,20,41,30)         -0.131          estimate D2E/DX2                !
 ! D227  D(60,20,41,57)       -138.0407         estimate D2E/DX2                !
 ! D228  D(41,20,54,21)       -142.6371         estimate D2E/DX2                !
 ! D229  D(41,20,54,36)         -0.0957         estimate D2E/DX2                !
 ! D230  D(60,20,54,21)         -0.0372         estimate D2E/DX2                !
 ! D231  D(60,20,54,36)        142.5042         estimate D2E/DX2                !
 ! D232  D(41,20,60,22)        142.5785         estimate D2E/DX2                !
 ! D233  D(41,20,60,33)          0.0237         estimate D2E/DX2                !
 ! D234  D(54,20,60,22)         -0.032          estimate D2E/DX2                !
 ! D235  D(54,20,60,33)       -142.5868         estimate D2E/DX2                !
 ! D236  D(49,21,22,8)          -0.3491         estimate D2E/DX2                !
 ! D237  D(49,21,22,60)       -142.8666         estimate D2E/DX2                !
 ! D238  D(54,21,22,8)         142.4056         estimate D2E/DX2                !
 ! D239  D(54,21,22,60)         -0.1119         estimate D2E/DX2                !
 ! D240  D(22,21,49,3)           0.0108         estimate D2E/DX2                !
 ! D241  D(22,21,49,16)        138.2997         estimate D2E/DX2                !
 ! D242  D(54,21,49,3)        -138.2921         estimate D2E/DX2                !
 ! D243  D(54,21,49,16)         -0.0031         estimate D2E/DX2                !
 ! D244  D(22,21,54,20)          0.0922         estimate D2E/DX2                !
 ! D245  D(22,21,54,36)       -142.4513         estimate D2E/DX2                !
 ! D246  D(49,21,54,20)        142.8519         estimate D2E/DX2                !
 ! D247  D(49,21,54,36)          0.3085         estimate D2E/DX2                !
 ! D248  D(8,22,60,20)        -142.4205         estimate D2E/DX2                !
 ! D249  D(8,22,60,33)           0.124          estimate D2E/DX2                !
 ! D250  D(21,22,60,20)          0.089          estimate D2E/DX2                !
 ! D251  D(21,22,60,33)        142.6336         estimate D2E/DX2                !
 ! D252  D(8,23,26,2)         -141.9587         estimate D2E/DX2                !
 ! D253  D(8,23,26,55)           0.6085         estimate D2E/DX2                !
 ! D254  D(48,23,26,2)           0.6513         estimate D2E/DX2                !
 ! D255  D(48,23,26,55)        143.2186         estimate D2E/DX2                !
 ! D256  D(8,23,48,1)          138.1914         estimate D2E/DX2                !
 ! D257  D(8,23,48,33)           0.1425         estimate D2E/DX2                !
 ! D258  D(26,23,48,1)           0.104          estimate D2E/DX2                !
 ! D259  D(26,23,48,33)       -137.9449         estimate D2E/DX2                !
 ! D260  D(18,24,39,4)          -1.8661         estimate D2E/DX2                !
 ! D261  D(18,24,39,30)       -139.4417         estimate D2E/DX2                !
 ! D262  D(53,24,39,4)         138.4641         estimate D2E/DX2                !
 ! D263  D(53,24,39,30)          0.8884         estimate D2E/DX2                !
 ! D264  D(18,24,53,42)          0.1433         estimate D2E/DX2                !
 ! D265  D(18,24,53,59)        145.1199         estimate D2E/DX2                !
 ! D266  D(39,24,53,42)       -144.8965         estimate D2E/DX2                !
 ! D267  D(39,24,53,59)          0.0801         estimate D2E/DX2                !
 ! D268  D(2,26,55,31)         141.9697         estimate D2E/DX2                !
 ! D269  D(2,26,55,43)          -0.6494         estimate D2E/DX2                !
 ! D270  D(23,26,55,31)         -0.6039         estimate D2E/DX2                !
 ! D271  D(23,26,55,43)       -143.223          estimate D2E/DX2                !
 ! D272  D(2,28,50,35)        -138.2119         estimate D2E/DX2                !
 ! D273  D(2,28,50,43)          -1.1362         estimate D2E/DX2                !
 ! D274  D(15,28,50,35)          1.4862         estimate D2E/DX2                !
 ! D275  D(15,28,50,43)        138.5618         estimate D2E/DX2                !
 ! D276  D(12,29,34,13)          0.1924         estimate D2E/DX2                !
 ! D277  D(12,29,34,56)        141.6916         estimate D2E/DX2                !
 ! D278  D(45,29,34,13)       -141.8228         estimate D2E/DX2                !
 ! D279  D(45,29,34,56)         -0.3236         estimate D2E/DX2                !
 ! D280  D(12,29,45,5)        -141.5331         estimate D2E/DX2                !
 ! D281  D(12,29,45,38)          0.9251         estimate D2E/DX2                !
 ! D282  D(34,29,45,5)           0.2544         estimate D2E/DX2                !
 ! D283  D(34,29,45,38)        142.7126         estimate D2E/DX2                !
 ! D284  D(41,30,39,4)          -0.1814         estimate D2E/DX2                !
 ! D285  D(41,30,39,24)        141.5569         estimate D2E/DX2                !
 ! D286  D(46,30,39,4)        -142.6919         estimate D2E/DX2                !
 ! D287  D(46,30,39,24)         -0.9536         estimate D2E/DX2                !
 ! D288  D(39,30,41,20)       -142.3958         estimate D2E/DX2                !
 ! D289  D(39,30,41,57)          0.0111         estimate D2E/DX2                !
 ! D290  D(46,30,41,20)          0.1499         estimate D2E/DX2                !
 ! D291  D(46,30,41,57)        142.5567         estimate D2E/DX2                !
 ! D292  D(39,30,46,33)        137.9128         estimate D2E/DX2                !
 ! D293  D(39,30,46,59)          0.0488         estimate D2E/DX2                !
 ! D294  D(41,30,46,33)         -0.0595         estimate D2E/DX2                !
 ! D295  D(41,30,46,59)       -137.9235         estimate D2E/DX2                !
 ! D296  D(3,31,55,26)        -142.4189         estimate D2E/DX2                !
 ! D297  D(3,31,55,43)           0.1534         estimate D2E/DX2                !
 ! D298  D(8,31,55,26)           0.3682         estimate D2E/DX2                !
 ! D299  D(8,31,55,43)         142.9404         estimate D2E/DX2                !
 ! D300  D(11,32,44,13)        151.2163         estimate D2E/DX2                !
 ! D301  D(11,32,44,40)         12.8686         estimate D2E/DX2                !
 ! D302  D(12,32,44,13)          0.9344         estimate D2E/DX2                !
 ! D303  D(12,32,44,40)       -137.4132         estimate D2E/DX2                !
 ! D304  D(48,33,46,30)       -142.4699         estimate D2E/DX2                !
 ! D305  D(48,33,46,59)         -0.0473         estimate D2E/DX2                !
 ! D306  D(60,33,46,30)         -0.0479         estimate D2E/DX2                !
 ! D307  D(60,33,46,59)        142.3747         estimate D2E/DX2                !
 ! D308  D(46,33,48,1)          -0.1152         estimate D2E/DX2                !
 ! D309  D(46,33,48,23)        142.4004         estimate D2E/DX2                !
 ! D310  D(60,33,48,1)        -142.5086         estimate D2E/DX2                !
 ! D311  D(60,33,48,23)          0.007          estimate D2E/DX2                !
 ! D312  D(46,33,60,20)          0.0667         estimate D2E/DX2                !
 ! D313  D(46,33,60,22)       -138.0471         estimate D2E/DX2                !
 ! D314  D(48,33,60,20)        137.9733         estimate D2E/DX2                !
 ! D315  D(48,33,60,22)         -0.1404         estimate D2E/DX2                !
 ! D316  D(13,34,56,5)         141.3759         estimate D2E/DX2                !
 ! D317  D(13,34,56,14)         -1.084          estimate D2E/DX2                !
 ! D318  D(29,34,56,5)           0.2689         estimate D2E/DX2                !
 ! D319  D(29,34,56,14)       -142.1909         estimate D2E/DX2                !
 ! D320  D(9,35,38,45)          -0.9617         estimate D2E/DX2                !
 ! D321  D(9,35,38,51)         141.5378         estimate D2E/DX2                !
 ! D322  D(50,35,38,45)       -142.5913         estimate D2E/DX2                !
 ! D323  D(50,35,38,51)         -0.0918         estimate D2E/DX2                !
 ! D324  D(9,35,50,28)          -0.0696         estimate D2E/DX2                !
 ! D325  D(9,35,50,43)        -141.7223         estimate D2E/DX2                !
 ! D326  D(38,35,50,28)        141.8306         estimate D2E/DX2                !
 ! D327  D(38,35,50,43)          0.1779         estimate D2E/DX2                !
 ! D328  D(54,36,37,7)        -142.3905         estimate D2E/DX2                !
 ! D329  D(54,36,37,57)          0.1355         estimate D2E/DX2                !
 ! D330  D(58,36,37,7)           0.3757         estimate D2E/DX2                !
 ! D331  D(58,36,37,57)        142.9017         estimate D2E/DX2                !
 ! D332  D(37,36,54,20)         -0.0357         estimate D2E/DX2                !
 ! D333  D(37,36,54,21)        138.0874         estimate D2E/DX2                !
 ! D334  D(58,36,54,20)       -138.4252         estimate D2E/DX2                !
 ! D335  D(58,36,54,21)         -0.3022         estimate D2E/DX2                !
 ! D336  D(37,36,58,14)         -0.0133         estimate D2E/DX2                !
 ! D337  D(37,36,58,16)       -142.8042         estimate D2E/DX2                !
 ! D338  D(54,36,58,14)        142.7818         estimate D2E/DX2                !
 ! D339  D(54,36,58,16)         -0.0092         estimate D2E/DX2                !
 ! D340  D(7,37,57,4)           -0.1714         estimate D2E/DX2                !
 ! D341  D(7,37,57,41)         137.9333         estimate D2E/DX2                !
 ! D342  D(36,37,57,4)        -138.2083         estimate D2E/DX2                !
 ! D343  D(36,37,57,41)         -0.1036         estimate D2E/DX2                !
 ! D344  D(35,38,45,5)         137.9677         estimate D2E/DX2                !
 ! D345  D(35,38,45,29)          0.0782         estimate D2E/DX2                !
 ! D346  D(51,38,45,5)           0.0242         estimate D2E/DX2                !
 ! D347  D(51,38,45,29)       -137.8653         estimate D2E/DX2                !
 ! D348  D(35,38,51,43)         -0.0297         estimate D2E/DX2                !
 ! D349  D(35,38,51,47)       -142.4114         estimate D2E/DX2                !
 ! D350  D(45,38,51,43)        142.4798         estimate D2E/DX2                !
 ! D351  D(45,38,51,47)          0.0981         estimate D2E/DX2                !
 ! D352  D(10,40,44,13)         -0.1807         estimate D2E/DX2                !
 ! D353  D(10,40,44,32)        142.8276         estimate D2E/DX2                !
 ! D354  D(18,40,44,13)       -142.8916         estimate D2E/DX2                !
 ! D355  D(18,40,44,32)          0.1167         estimate D2E/DX2                !
 ! D356  D(20,41,57,4)         142.5583         estimate D2E/DX2                !
 ! D357  D(20,41,57,37)         -0.0277         estimate D2E/DX2                !
 ! D358  D(30,41,57,4)           0.1619         estimate D2E/DX2                !
 ! D359  D(30,41,57,37)       -142.4241         estimate D2E/DX2                !
 ! D360  D(17,42,52,6)         151.0641         estimate D2E/DX2                !
 ! D361  D(17,42,52,15)         13.2406         estimate D2E/DX2                !
 ! D362  D(53,42,52,6)           0.6332         estimate D2E/DX2                !
 ! D363  D(53,42,52,15)       -137.1903         estimate D2E/DX2                !
 ! D364  D(17,42,53,24)        -11.723          estimate D2E/DX2                !
 ! D365  D(17,42,53,59)       -156.2349         estimate D2E/DX2                !
 ! D366  D(52,42,53,24)        142.4279         estimate D2E/DX2                !
 ! D367  D(52,42,53,59)         -2.0841         estimate D2E/DX2                !
 ! D368  D(51,43,50,28)       -141.4695         estimate D2E/DX2                !
 ! D369  D(51,43,50,35)         -0.196          estimate D2E/DX2                !
 ! D370  D(55,43,50,28)          0.989          estimate D2E/DX2                !
 ! D371  D(55,43,50,35)        142.2625         estimate D2E/DX2                !
 ! D372  D(50,43,51,38)          0.1388         estimate D2E/DX2                !
 ! D373  D(50,43,51,47)        142.5062         estimate D2E/DX2                !
 ! D374  D(55,43,51,38)       -142.3893         estimate D2E/DX2                !
 ! D375  D(55,43,51,47)         -0.0219         estimate D2E/DX2                !
 ! D376  D(50,43,55,26)         -0.0903         estimate D2E/DX2                !
 ! D377  D(50,43,55,31)       -138.1869         estimate D2E/DX2                !
 ! D378  D(51,43,55,26)        137.961          estimate D2E/DX2                !
 ! D379  D(51,43,55,31)         -0.1357         estimate D2E/DX2                !
 ! D380  D(30,46,59,1)         142.6446         estimate D2E/DX2                !
 ! D381  D(30,46,59,53)          0.9191         estimate D2E/DX2                !
 ! D382  D(33,46,59,1)           0.1936         estimate D2E/DX2                !
 ! D383  D(33,46,59,53)       -141.5319         estimate D2E/DX2                !
 ! D384  D(3,47,51,38)         138.0322         estimate D2E/DX2                !
 ! D385  D(3,47,51,43)           0.1616         estimate D2E/DX2                !
 ! D386  D(19,47,51,38)         -0.1269         estimate D2E/DX2                !
 ! D387  D(19,47,51,43)       -137.9974         estimate D2E/DX2                !
 ! D388  D(24,53,59,1)        -138.592          estimate D2E/DX2                !
 ! D389  D(24,53,59,46)         -0.984          estimate D2E/DX2                !
 ! D390  D(42,53,59,1)           1.6957         estimate D2E/DX2                !
 ! D391  D(42,53,59,46)        139.3037         estimate D2E/DX2                !
 ! D392  D(63,67,68,64)         -0.7177         estimate D2E/DX2                !
 ! D393  D(63,67,68,69)        179.2693         estimate D2E/DX2                !
 ! D394  D(71,67,68,64)        179.1003         estimate D2E/DX2                !
 ! D395  D(71,67,68,69)         -0.9127         estimate D2E/DX2                !
 ! D396  D(63,67,71,72)       -179.1268         estimate D2E/DX2                !
 ! D397  D(63,67,71,77)         -2.3428         estimate D2E/DX2                !
 ! D398  D(68,67,71,72)          1.0566         estimate D2E/DX2                !
 ! D399  D(68,67,71,77)        177.8406         estimate D2E/DX2                !
 ! D400  D(64,68,69,65)         -0.0575         estimate D2E/DX2                !
 ! D401  D(64,68,69,70)        179.836          estimate D2E/DX2                !
 ! D402  D(67,68,69,65)        179.9555         estimate D2E/DX2                !
 ! D403  D(67,68,69,70)         -0.151          estimate D2E/DX2                !
 ! D404  D(65,69,70,66)          0.8443         estimate D2E/DX2                !
 ! D405  D(65,69,70,72)       -179.0388         estimate D2E/DX2                !
 ! D406  D(68,69,70,66)       -179.0491         estimate D2E/DX2                !
 ! D407  D(68,69,70,72)          1.0679         estimate D2E/DX2                !
 ! D408  D(66,70,72,71)        179.1886         estimate D2E/DX2                !
 ! D409  D(66,70,72,78)          3.9224         estimate D2E/DX2                !
 ! D410  D(69,70,72,71)         -0.9287         estimate D2E/DX2                !
 ! D411  D(69,70,72,78)       -176.195          estimate D2E/DX2                !
 ! D412  D(67,71,72,70)         -0.1371         estimate D2E/DX2                !
 ! D413  D(67,71,72,78)        176.2231         estimate D2E/DX2                !
 ! D414  D(77,71,72,70)       -177.6178         estimate D2E/DX2                !
 ! D415  D(77,71,72,78)         -1.2576         estimate D2E/DX2                !
 ! D416  D(67,71,77,11)       -105.0576         estimate D2E/DX2                !
 ! D417  D(67,71,77,76)        151.5781         estimate D2E/DX2                !
 ! D418  D(67,71,77,87)         23.4427         estimate D2E/DX2                !
 ! D419  D(72,71,77,11)         72.0534         estimate D2E/DX2                !
 ! D420  D(72,71,77,76)        -31.3109         estimate D2E/DX2                !
 ! D421  D(72,71,77,87)       -159.4462         estimate D2E/DX2                !
 ! D422  D(70,72,78,17)        104.3754         estimate D2E/DX2                !
 ! D423  D(70,72,78,75)        -21.4901         estimate D2E/DX2                !
 ! D424  D(70,72,78,76)       -150.5073         estimate D2E/DX2                !
 ! D425  D(71,72,78,17)        -71.4017         estimate D2E/DX2                !
 ! D426  D(71,72,78,75)        162.7329         estimate D2E/DX2                !
 ! D427  D(71,72,78,76)         33.7156         estimate D2E/DX2                !
 ! D428  D(73,76,77,11)         61.1237         estimate D2E/DX2                !
 ! D429  D(73,76,77,71)        168.1838         estimate D2E/DX2                !
 ! D430  D(73,76,77,87)        -66.1731         estimate D2E/DX2                !
 ! D431  D(74,76,77,11)       -174.8128         estimate D2E/DX2                !
 ! D432  D(74,76,77,71)        -67.7526         estimate D2E/DX2                !
 ! D433  D(74,76,77,87)         57.8904         estimate D2E/DX2                !
 ! D434  D(78,76,77,11)        -57.7614         estimate D2E/DX2                !
 ! D435  D(78,76,77,71)         49.2988         estimate D2E/DX2                !
 ! D436  D(78,76,77,87)        174.9418         estimate D2E/DX2                !
 ! D437  D(73,76,78,17)        -60.2852         estimate D2E/DX2                !
 ! D438  D(73,76,78,72)       -169.3758         estimate D2E/DX2                !
 ! D439  D(73,76,78,75)         62.712          estimate D2E/DX2                !
 ! D440  D(74,76,78,17)        175.0305         estimate D2E/DX2                !
 ! D441  D(74,76,78,72)         65.9398         estimate D2E/DX2                !
 ! D442  D(74,76,78,75)        -61.9724         estimate D2E/DX2                !
 ! D443  D(77,76,78,17)         58.4781         estimate D2E/DX2                !
 ! D444  D(77,76,78,72)        -50.6126         estimate D2E/DX2                !
 ! D445  D(77,76,78,75)       -178.5247         estimate D2E/DX2                !
 ! D446  D(11,77,87,61)        156.88           estimate D2E/DX2                !
 ! D447  D(11,77,87,62)         42.1274         estimate D2E/DX2                !
 ! D448  D(11,77,87,86)        -82.2606         estimate D2E/DX2                !
 ! D449  D(71,77,87,61)         34.3394         estimate D2E/DX2                !
 ! D450  D(71,77,87,62)        -80.4132         estimate D2E/DX2                !
 ! D451  D(71,77,87,86)        155.1988         estimate D2E/DX2                !
 ! D452  D(76,77,87,61)        -83.821          estimate D2E/DX2                !
 ! D453  D(76,77,87,62)        161.4264         estimate D2E/DX2                !
 ! D454  D(76,77,87,86)         37.0384         estimate D2E/DX2                !
 ! D455  D(91,79,83,80)         59.7947         estimate D2E/DX2                !
 ! D456  D(91,79,83,81)        -59.959          estimate D2E/DX2                !
 ! D457  D(91,79,83,82)        179.9241         estimate D2E/DX2                !
[...]
 Alpha virt. eigenvalues --    0.93176   0.93299   0.94198   0.94530   0.94769
 Alpha virt. eigenvalues --    0.94851   0.95266   0.95331   0.96113   0.96918
 Alpha virt. eigenvalues --    0.97125   0.97217   0.97491   0.97943   0.98514
 Alpha virt. eigenvalues --    0.98760   0.98981   0.99410   0.99841   1.00040
 Alpha virt. eigenvalues --    1.00113   1.00376   1.00741   1.01162   1.01355
 Alpha virt. eigenvalues --    1.01803   1.01920   1.02150   1.02865   1.03035
 Alpha virt. eigenvalues --    1.03315   1.03744   1.04772   1.05031   1.05538
 Alpha virt. eigenvalues --    1.05711   1.05881   1.06690   1.06837   1.06964
 Alpha virt. eigenvalues --    1.07173   1.07533   1.08278   1.08653   1.08795
 Alpha virt. eigenvalues --    1.09088   1.09145   1.09313   1.09335   1.09818
 Alpha virt. eigenvalues --    1.09988   1.10626   1.11618   1.12351   1.12778
 Alpha virt. eigenvalues --    1.13629   1.14089   1.14449   1.14788   1.15328
 Alpha virt. eigenvalues --    1.15370   1.15775   1.16144   1.16847   1.17845
 Alpha virt. eigenvalues --    1.18060   1.18138   1.18517   1.18893   1.19176
 Alpha virt. eigenvalues --    1.19454   1.19823   1.19917   1.20505   1.21683
 Alpha virt. eigenvalues --    1.22409   1.22782   1.23253   1.23365   1.23526
 Alpha virt. eigenvalues --    1.23588   1.23872   1.24378   1.24833   1.24938
 Alpha virt. eigenvalues --    1.25407   1.25480   1.25727   1.26053   1.26269
 Alpha virt. eigenvalues --    1.26806   1.27374   1.27730   1.28503   1.29674
 Alpha virt. eigenvalues --    1.29836   1.29934   1.30964   1.31190   1.31373
 Alpha virt. eigenvalues --    1.31810   1.32659   1.33042   1.33624   1.34244
 Alpha virt. eigenvalues --    1.34434   1.35174   1.35425   1.35723   1.36084
 Alpha virt. eigenvalues --    1.36647   1.36989   1.37705   1.37857   1.38641
 Alpha virt. eigenvalues --    1.38937   1.39202   1.39621   1.41745   1.42243
 Alpha virt. eigenvalues --    1.43249   1.44730   1.45087   1.45460   1.46217
 Alpha virt. eigenvalues --    1.46427   1.46982   1.47375   1.47456   1.48101
 Alpha virt. eigenvalues --    1.48719   1.49238   1.49418   1.49846   1.50086
 Alpha virt. eigenvalues --    1.50143   1.50962   1.51425   1.51792   1.52107
 Alpha virt. eigenvalues --    1.52409   1.52727   1.52881   1.53546   1.54276
 Alpha virt. eigenvalues --    1.54472   1.54745   1.54965   1.55837   1.55981
 Alpha virt. eigenvalues --    1.56892   1.57231   1.57990   1.59448   1.60067
 Alpha virt. eigenvalues --    1.61190   1.62068   1.63075   1.63402   1.63517
 Alpha virt. eigenvalues --    1.63748   1.64011   1.64800   1.65600   1.65992
 Alpha virt. eigenvalues --    1.66315   1.66622   1.67860   1.68217   1.69168
 Alpha virt. eigenvalues --    1.69900   1.70798   1.71273   1.72043   1.72167
 Alpha virt. eigenvalues --    1.72625   1.72995   1.73338   1.73432   1.73824
 Alpha virt. eigenvalues --    1.74091   1.74233   1.74721   1.74758   1.75017
 Alpha virt. eigenvalues --    1.75124   1.75318   1.75597   1.75779   1.75899
 Alpha virt. eigenvalues --    1.75958   1.76181   1.76623   1.76751   1.76840
 Alpha virt. eigenvalues --    1.77015   1.77312   1.77503   1.77913   1.77952
 Alpha virt. eigenvalues --    1.78177   1.78243   1.78361   1.78387   1.79015
 Alpha virt. eigenvalues --    1.79217   1.79418   1.79988   1.80269   1.80720
 Alpha virt. eigenvalues --    1.81047   1.81356   1.81611   1.82048   1.82133
 Alpha virt. eigenvalues --    1.82307   1.82495   1.82607   1.82703   1.82833
 Alpha virt. eigenvalues --    1.83030   1.83220   1.83632   1.84193   1.84474
 Alpha virt. eigenvalues --    1.85039   1.85225   1.85480   1.85803   1.86420
 Alpha virt. eigenvalues --    1.86851   1.86949   1.87328   1.87549   1.88203
 Alpha virt. eigenvalues --    1.88397   1.88530   1.89090   1.89221   1.89383
 Alpha virt. eigenvalues --    1.89510   1.89797   1.90141   1.90535   1.90693
 Alpha virt. eigenvalues --    1.91400   1.91983   1.92127   1.92463   1.93048
 Alpha virt. eigenvalues --    1.93066   1.93544   1.94262   1.94862   1.95525
 Alpha virt. eigenvalues --    1.95882   1.96107   1.96359   1.96744   1.96823
 Alpha virt. eigenvalues --    1.97338   1.97408   1.97788   1.97999   1.98486
 Alpha virt. eigenvalues --    1.99190   1.99402   1.99722   1.99909   2.00047
 Alpha virt. eigenvalues --    2.00443   2.00510   2.00695   2.01006   2.01172
 Alpha virt. eigenvalues --    2.01379   2.02049   2.02152   2.02486   2.03010
 Alpha virt. eigenvalues --    2.03567   2.03837   2.04152   2.04311   2.04457
 Alpha virt. eigenvalues --    2.04521   2.04768   2.04914   2.05076   2.05287
 Alpha virt. eigenvalues --    2.05422   2.05683   2.05768   2.06099   2.06304
 Alpha virt. eigenvalues --    2.06728   2.06775   2.07020   2.07912   2.08161
 Alpha virt. eigenvalues --    2.08254   2.08522   2.08719   2.08889   2.09111
 Alpha virt. eigenvalues --    2.09826   2.10063   2.10309   2.10608   2.10709
 Alpha virt. eigenvalues --    2.10966   2.11014   2.11243   2.11739   2.11939
 Alpha virt. eigenvalues --    2.12168   2.12270   2.12778   2.12893   2.13158
 Alpha virt. eigenvalues --    2.13377   2.13869   2.14089   2.14220   2.14449
 Alpha virt. eigenvalues --    2.14607   2.15386   2.16122   2.16316   2.16891
 Alpha virt. eigenvalues --    2.17155   2.17451   2.17717   2.18086   2.18528
 Alpha virt. eigenvalues --    2.18605   2.18739   2.18819   2.19000   2.19023
 Alpha virt. eigenvalues --    2.19220   2.19518   2.19606   2.19974   2.20278
 Alpha virt. eigenvalues --    2.20457   2.21093   2.21125   2.21178   2.22288
 Alpha virt. eigenvalues --    2.22693   2.23003   2.24546   2.25451   2.25914
 Alpha virt. eigenvalues --    2.26524   2.27170   2.27622   2.27927   2.28543
 Alpha virt. eigenvalues --    2.28784   2.29021   2.29394   2.29916   2.30345
 Alpha virt. eigenvalues --    2.31473   2.32430   2.32730   2.33073   2.33436
 Alpha virt. eigenvalues --    2.33668   2.34406   2.34671   2.35105   2.35425
 Alpha virt. eigenvalues --    2.35978   2.36451   2.37101   2.37438   2.37580
 Alpha virt. eigenvalues --    2.37830   2.38076   2.38857   2.39202   2.39598
 Alpha virt. eigenvalues --    2.40587   2.40730   2.41591   2.42351   2.42737
 Alpha virt. eigenvalues --    2.43160   2.43922   2.44429   2.44841   2.45379
 Alpha virt. eigenvalues --    2.45762   2.46362   2.46693   2.46860   2.47090
 Alpha virt. eigenvalues --    2.47376   2.47959   2.48478   2.48820   2.49053
 Alpha virt. eigenvalues --    2.49209   2.49808   2.50089   2.50303   2.50474
 Alpha virt. eigenvalues --    2.51246   2.51315   2.51875   2.52069   2.52494
 Alpha virt. eigenvalues --    2.52869   2.53814   2.53863   2.54018   2.54550
 Alpha virt. eigenvalues --    2.54624   2.54814   2.54870   2.55051   2.55930
 Alpha virt. eigenvalues --    2.56184   2.56718   2.56873   2.57198   2.57712
 Alpha virt. eigenvalues --    2.58200   2.58753   2.59146   2.59553   2.59723
 Alpha virt. eigenvalues --    2.59956   2.60343   2.60556   2.60813   2.61794
 Alpha virt. eigenvalues --    2.61978   2.62473   2.63760   2.64103   2.64918
 Alpha virt. eigenvalues --    2.65419   2.65990   2.66100   2.66431   2.66747
 Alpha virt. eigenvalues --    2.67266   2.67421   2.67847   2.68012   2.68804
 Alpha virt. eigenvalues --    2.68874   2.69017   2.69184   2.69541   2.69849
 Alpha virt. eigenvalues --    2.69975   2.70175   2.70322   2.70759   2.71732
 Alpha virt. eigenvalues --    2.72122   2.72381   2.72457   2.73202   2.73723
 Alpha virt. eigenvalues --    2.74090   2.74411   2.74981   2.75433   2.75485
 Alpha virt. eigenvalues --    2.75794   2.75949   2.76460   2.76639   2.76850
 Alpha virt. eigenvalues --    2.77290   2.77881   2.78299   2.78646   2.78841
 Alpha virt. eigenvalues --    2.79424   2.79446   2.79623   2.79953   2.80015
 Alpha virt. eigenvalues --    2.80294   2.81883   2.82218   2.82999   2.83194
 Alpha virt. eigenvalues --    2.83602   2.84754   2.85860   2.86473   2.87656
 Alpha virt. eigenvalues --    2.88402   2.88500   2.89286   2.89666   2.90412
 Alpha virt. eigenvalues --    2.90813   2.91055   2.91375   2.91623   2.91694
 Alpha virt. eigenvalues --    2.91862   2.91943   2.92001   2.92035   2.92728
 Alpha virt. eigenvalues --    2.92911   2.93352   2.93958   2.94209   2.94588
 Alpha virt. eigenvalues --    2.95816   2.96746   2.97729   2.97809   2.98181
 Alpha virt. eigenvalues --    2.98753   2.99554   2.99670   3.00281   3.00467
 Alpha virt. eigenvalues --    3.00751   3.01048   3.01400   3.01607   3.02029
 Alpha virt. eigenvalues --    3.02310   3.02560   3.02791   3.03263   3.04506
 Alpha virt. eigenvalues --    3.05586   3.06154   3.06577   3.06881   3.07088
 Alpha virt. eigenvalues --    3.07491   3.08424   3.08705   3.08991   3.11448
 Alpha virt. eigenvalues --    3.11766   3.14328   3.15236   3.15807   3.16453
 Alpha virt. eigenvalues --    3.17153   3.18007   3.18462   3.18842   3.19735
 Alpha virt. eigenvalues --    3.19899   3.20380   3.25636   3.29454   3.30569
 Alpha virt. eigenvalues --    3.30886   3.34364   3.34719   3.34969   3.35610
 Alpha virt. eigenvalues --    3.37453   3.38886   3.42993   3.43099   3.43153
 Alpha virt. eigenvalues --    3.46596   3.48736   3.49188   3.54437   3.54803
 Alpha virt. eigenvalues --    3.57465   3.57791   3.70352   3.71413   3.73454
 Alpha virt. eigenvalues --    3.75130
          Condensed to atoms (all electrons):
 Mulliken charges:
               1
     1  C   -0.005718
     2  C   -0.002552
     3  C   -0.002028
     4  C   -0.008004
     5  C   -0.000997
     6  C   -0.000520
     7  C   -0.006381
     8  C   -0.002935
     9  C    0.045765
    10  C    0.000200
    11  C   -0.120886
    12  C    0.043356
    13  C    0.000054
    14  C   -0.001455
    15  C   -0.025190
    16  C   -0.002044
    17  C   -0.203989
    18  C    0.045282
    19  C   -0.001643
    20  C   -0.001909
    21  C   -0.002713
    22  C   -0.001850
    23  C   -0.001908
    24  C    0.035225
    25  C    0.057599
    26  C   -0.006170
    27  C   -0.003038
    28  C    0.004216
    29  C   -0.022295
    30  C   -0.003384
    31  C   -0.002563
    32  C    0.012684
    33  C   -0.000528
    34  C   -0.008277
    35  C   -0.024272
    36  C   -0.003168
    37  C   -0.001693
    38  C   -0.003533
    39  C   -0.021509
    40  C   -0.006643
    41  C   -0.000408
    42  C    0.042404
    43  C   -0.006024
    44  C    0.002805
    45  C   -0.004187
    46  C   -0.003548
    47  C   -0.001905
    48  C   -0.006656
    49  C   -0.002529
    50  C   -0.009758
    51  C   -0.000539
    52  C   -0.013449
    53  C    0.051361
    54  C   -0.001877
    55  C   -0.002363
    56  C   -0.007211
    57  C   -0.005925
    58  C   -0.002693
    59  C   -0.027537
    60  C   -0.001826
    61  H    0.042105
    62  H    0.038658
    63  H    0.035139
    64  H    0.046323
    65  H    0.046989
    66  H    0.032684
    67  C   -0.110682
    68  C   -0.041259
    69  C   -0.041871
    70  C   -0.106376
    71  C    0.081035
    72  C    0.031248
    73  H    0.048306
    74  H    0.059673
    75  H    0.025230
    76  C    0.192613
    77  C   -0.286240
    78  C    0.062640
    79  C   -0.116304
    80  H    0.039564
    81  H    0.039472
    82  H    0.044890
    83  C   -0.063878
    84  O   -0.347033
    85  C    0.261969
    86  C   -0.050832
    87  C    0.101040
    88  H    0.086049
    89  H    0.088845
    90  O   -0.349982
    91  C   -0.088502
    92  C    0.187126
    93  H    0.040133
    94  H    0.039984
    95  H    0.042754
    96  H    0.042896
    97  H    0.051722
    98  H    0.051151
 Sum of Mulliken charges =  -0.00000
 Mulliken charges with hydrogens summed into heavy atoms:
               1
     1  C   -0.005718
     2  C   -0.002552
     3  C   -0.002028
     4  C   -0.008004
     5  C   -0.000997
     6  C   -0.000520
     7  C   -0.006381
     8  C   -0.002935
     9  C    0.045765
    10  C    0.000200
    11  C   -0.120886
    12  C    0.043356
    13  C    0.000054
    14  C   -0.001455
    15  C   -0.025190
    16  C   -0.002044
    17  C   -0.203989
    18  C    0.045282
    19  C   -0.001643
    20  C   -0.001909
    21  C   -0.002713
    22  C   -0.001850
    23  C   -0.001908
    24  C    0.035225
    25  C    0.057599
    26  C   -0.006170
    27  C   -0.003038
    28  C    0.004216
    29  C   -0.022295
    30  C   -0.003384
    31  C   -0.002563
    32  C    0.012684
    33  C   -0.000528
    34  C   -0.008277
    35  C   -0.024272
    36  C   -0.003168
    37  C   -0.001693
    38  C   -0.003533
    39  C   -0.021509
    40  C   -0.006643
    41  C   -0.000408
    42  C    0.042404
    43  C   -0.006024
    44  C    0.002805
    45  C   -0.004187
    46  C   -0.003548
    47  C   -0.001905
    48  C   -0.006656
    49  C   -0.002529
    50  C   -0.009758
    51  C   -0.000539
    52  C   -0.013449
    53  C    0.051361
    54  C   -0.001877
    55  C   -0.002363
    56  C   -0.007211
    57  C   -0.005925
    58  C   -0.002693
    59  C   -0.027537
    60  C   -0.001826
    67  C   -0.075543
    68  C    0.005064
    69  C    0.005118
    70  C   -0.073692
    71  C    0.081035
    72  C    0.031248
    76  C    0.300591
    77  C   -0.286240
    78  C    0.087871
    79  C   -0.036186
    83  C    0.060048
    84  O   -0.347033
    85  C    0.261969
    86  C    0.124062
    87  C    0.181803
    90  O   -0.349982
    91  C   -0.002852
    92  C    0.290000
 Electronic spatial extent (au):  <R**2>=          42694.8133
 Charge=             -0.0000 electrons
 Dipole moment (field-independent basis, Debye):
    X=             -4.4341    Y=              1.5280    Z=             -3.6592  Tot=              5.9486
 Quadrupole moment (field-independent basis, Debye-Ang):
   XX=           -430.4066   YY=           -432.1247   ZZ=           -447.7355
   XY=              7.0409   XZ=             13.9433   YZ=             -6.4656
 Traceless Quadrupole moment (field-independent basis, Debye-Ang):
   XX=              6.3490   YY=              4.6309   ZZ=            -10.9799
   XY=              7.0409   XZ=             13.9433   YZ=             -6.4656
 Octapole moment (field-independent basis, Debye-Ang**2):
  XXX=           -487.9715  YYY=            115.6093  ZZZ=            -18.6561  XYY=           -127.7921
  XXY=            -79.3499  XXZ=            -69.1313  XZZ=            -73.4722  YZZ=             44.4951
  YYZ=              1.5518  XYZ=             13.2601
 Hexadecapole moment (field-independent basis, Debye-Ang**3):
 XXXX=         -33162.3356 YYYY=         -16847.8888 ZZZZ=          -9684.0267 XXXY=            980.1712
 XXXZ=            356.1848 YYYX=            299.9424 YYYZ=             49.5094 ZZZX=             53.7608
 ZZZY=            -27.0859 XXYY=          -8607.6328 XXZZ=          -7694.9116 YYZZ=          -4386.1585
 XXYZ=           -123.4137 YYXZ=           -114.4485 ZZXY=              7.6601
 N-N= 1.291670657715D+04 E-N=-3.290160216402D+04  KE= 3.023204831340D+03
 1\1\GINC-NODE003\FOpt\RwB97XD\def2SVP\C76H20O2\PSYCHE\10-Feb-2020\0\\#
  wB97XD/Def2SVP # Geom=Checkpoint Guess=Read # Opt=(maxstep=5,maxcycle
 =100) # SCRF=(SMD,Solvent=Water) # Integral=(Grid=UltraFineGrid)\\Geom
 etry optimisation, Mol: A3_3\\0,1\C,3.4198275446,-2.6283047855,0.25050
 40582\C,2.533571206,-2.2864721761,-2.0190743518\C,3.7632224448,2.10666
 07414,-2.4707411308\C,1.4749638039,0.9157232813,3.4822465683\C,0.53517
 16626,3.3862288562,-1.6652292431\C,2.4376756021,-2.8872063474,-0.70363
 63806\C,0.9991048101,3.2849996038,1.9879503559\C,4.9907679905,0.225103
 7581,-1.4652517738\C,-1.0505040489,-0.3828431828,-1.9211810297\C,0.189
 5250758,1.2101052889,3.033623421\C,-1.5247287308,-1.5069107858,0.18136
 83775\C,-1.5928606416,0.6081766717,-1.0151006702\C,-1.0513806944,2.134
 0589429,1.2673846306\C,1.0969550334,3.8946581218,0.6741607552\C,0.2617
 147096,-2.359333549,-1.441576901\C,2.8814263545,3.7133539755,-1.006074
 6492\C,-0.6700593886,-2.1343411789,1.384867767\C,-0.2099597357,-1.1229
 631407,2.4296541903\C,1.87992876,3.4288918564,-2.0142183064\C,4.628437
 8282,1.3813733749,1.8862616714\C,4.7819471585,2.3498184177,-0.24528467
 41\C,5.2677604901,0.9862889592,-0.336104218\C,4.608604297,-1.164181872
 3,-1.3274398321\C,1.1295903128,-1.4209857015,2.8529472641\C,-0.8479789
 181,-1.5934251983,-1.1797253725\C,3.5962248872,-1.4488189927,-2.327922
 8019\C,-0.0489614134,2.4211362298,2.2739071075\C,1.1937921633,-1.96167
 4372,-2.4671150605\C,-1.2455261923,1.9486756307,-1.1588139691\C,3.3623
 424043,-0.3945408797,3.0213067816\C,4.2220404452,0.797766835,-2.556294
 1756\C,-1.7164411017,0.0026386652,0.2802391436\C,4.8103511455,-0.94658
 00145,1.1133260884\C,-0.9686622436,2.7351890574,0.0134411528\C,-0.1780
 546353,0.0033324246,-2.9357227604\C,3.2657750851,3.3690314808,1.400779
 8028\C,2.341264544,2.9682652315,2.4399117631\C,0.2009403891,1.39870613
 2,-3.0715177182\C,1.9573222066,-0.4368552487,3.3876342179\C,-0.6616502
 159,0.1702061529,2.5096514223\C,3.7424130796,0.9975132865,2.8860407204
 \C,0.6728504119,-2.7157000772,0.97064536\C,2.0821433229,0.0758053538,-
 3.5267502608\C,-1.4402693016,0.7523554334,1.3961296161\C,-0.3204497249
 ,2.3483319276,-2.2049621187\C,3.8847864291,-1.3442820569,2.1552804396\
 C,2.4251921377,2.4354984531,-2.9198054266\C,4.5208958712,-1.7406463484
 ,-0.0662842924\C,4.046798667,2.8973721515,-1.288490829\C,0.9753334313,
 -0.8079479291,-3.217613258\C,1.6023988688,1.4423280518,-3.4382609787\C
 ,1.0463076798,-2.9423619317,-0.3303898608\C,1.6758097039,-2.4109994706
 ,1.9479122092\C,4.3857206845,2.5927269513,1.1286375329\C,3.3645100962,
 -0.237243826,-3.0930235656\C,0.1346624245,3.6243156388,-0.2911059725\C
 ,2.5731142754,1.808340658,3.169177737\C,2.4968735794,3.9417399947,0.30
 96874411\C,3.0270185788,-2.3824496342,1.612391375\C,5.1741617782,0.388
 2369121,0.9806709688\H,-4.7811580311,-2.5606552481,-0.7060995574\H,-3.
 7402787407,-1.3728895204,-1.4724156841\H,-3.3023517868,-4.0430088907,-
 2.1188318293\H,-2.3933714159,-6.3625104578,-2.2663719939\H,-1.09134926
 23,-7.327529936,-0.3956213252\H,-0.6571576505,-5.9908016494,1.67174905
 37\C,-2.738107586,-4.4687533146,-1.2858172058\C,-2.2202695518,-5.76777
 95368,-1.3665128714\C,-1.4851158599,-6.3120351855,-0.3110683866\C,-1.2
 452950348,-5.5704258493,0.8527711257\C,-2.5168044716,-3.7464309564,-0.
 1215713913\C,-1.7771900266,-4.2915645153,0.9351368384\H,-3.0761629566,
 -1.5401230017,2.3432335634\H,-3.8605758527,-3.1294358774,2.0833047407\
 H,-1.3765491443,-3.5291693641,2.9836726466\C,-3.0080059856,-2.49487276
 2,1.8018901701\C,-2.892368618,-2.3290328538,0.2721034581\C,-1.66225375
 14,-3.2072741263,1.9761512167\C,-9.4467300397,3.3205501301,-0.16051377
 07\H,-9.3869240383,4.9950687613,1.2313119744\H,-10.5278658158,3.711453
 5793,1.689581356\H,-10.9313057269,4.8278669214,0.365279559\C,-10.10988
 42134,4.2650342525,0.8336368736\O,-6.6003301283,0.883948818,0.12473166
 03\C,-5.9050249194,-0.0047822627,-0.580583219\C,-4.8282322488,-0.64640
 86566,0.2486117063\C,-4.0758976178,-1.7434671091,-0.4904700988\H,-5.30
 28394181,-1.032528021,1.163858668\H,-4.1647650679,0.1661870211,0.58148
 86123\O,-6.1287812171,-0.2404285589,-1.7490745216\C,-8.3012800735,2.52
 30929233,0.4559679537\C,-7.6548397121,1.5890839556,-0.5427893522\H,-9.
 066687291,3.8961511816,-1.0216990592\H,-10.1984487481,2.6221465216,-0.
 566171244\H,-8.6733626025,1.9324137836,1.3098480682\H,-7.5357178174,3.
 2115137369,0.8514570617\H,-7.2315476338,2.1420238659,-1.3961089565\H,-
 8.3788698352,0.8595894143,-0.9384127927\\Version=ES64L-G16RevA.03\Stat
 e=1-A\HF=-3055.3207819\RMSD=2.880e-09\RMSF=2.371e-06\Dipole=-1.7447128
 ,-0.5964089,1.4413496\Quadrupole=4.7044273,3.4331535,-8.1375808,-5.259
 063,-10.3636404,-4.8196989\PG=C01 [X(C76H20O2)]\\@


 I SUPPOSE A BABY LLAMA HAS A MMAMA AND A PPOPA.
     -- RICHARD AMOUR
 Job cpu time:       2 days 11 hours 48 minutes 13.5 seconds.
 Elapsed time:       0 days  1 hours 33 minutes 11.6 seconds.
 File lengths (MBytes):  RWF=   1536 Int=      0 D2E=      0 Chk=    134 Scr=      1
 Normal termination of Gaussian 16 at Mon Feb 10 21:13:18 2020.
