 Entering Gaussian System, Link 0=g16
 Initial command:
 /opt/apps/chemistry/Gaussian/g16/l1.exe "/tmp/Gau-116576.inp" -scrdir="/tmp/"
 Entering Link 1 = /opt/apps/chemistry/Gaussian/g16/l1.exe PID=    116577.
  
 Copyright (c) 1988,1990,1992,1993,1995,1998,2003,2009,2016,
            Gaussian, Inc.  All Rights Reserved.
  
 This is part of the Gaussian(R) 16 program.  It is based on
 the Gaussian(R) 09 system (copyright 2009, Gaussian, Inc.),
 the Gaussian(R) 03 system (copyright 2003, Gaussian, Inc.),
 the Gaussian(R) 98 system (copyright 1998, Gaussian, Inc.),
 the Gaussian(R) 94 system (copyright 1995, Gaussian, Inc.),
 the Gaussian 92(TM) system (copyright 1992, Gaussian, Inc.),
 the Gaussian 90(TM) system (copyright 1990, Gaussian, Inc.),
 the Gaussian 88(TM) system (copyright 1988, Gaussian, Inc.),
 the Gaussian 86(TM) system (copyright 1986, Carnegie Mellon
 University), and the Gaussian 82(TM) system (copyright 1983,
 Carnegie Mellon University). Gaussian is a federally registered
 trademark of Gaussian, Inc.
  
 This software contains proprietary and confidential information,
 including trade secrets, belonging to Gaussian, Inc.
  
 This software is provided under written license and may be
 used, copied, transmitted, or stored only in accord with that
 written license.
  
 The following legend is applicable only to US Government
 contracts under FAR:
  
                    RESTRICTED RIGHTS LEGEND
  
 Use, reproduction and disclosure by the US Government is
 subject to restrictions as set forth in subparagraphs (a)
 and (c) of the Commercial Computer Software - Restricted
 Rights clause in FAR 52.227-19.
  
 Gaussian, Inc.
 340 Quinnipiac St., Bldg. 40, Wallingford CT 06492
  
  
 ---------------------------------------------------------------
 Warning -- This program may not be used in any manner that
 competes with the business of Gaussian, Inc. or will provide
 assistance to any competitor of Gaussian, Inc.  The licensee
 of this program is prohibited from giving any competitor of
 Gaussian, Inc. access to this program.  By using this program,
 the user acknowledges that Gaussian, Inc. is engaged in the
 business of creating and licensing software in the field of
 computational chemistry and represents and warrants to the
 licensee that it is not a competitor of Gaussian, Inc. and that
 it will not use this program in any manner prohibited above.
 ---------------------------------------------------------------
  

 Cite this work as:
 Gaussian 16, Revision A.03,
 M. J. Frisch, G. W. Trucks, H. B. Schlegel, G. E. Scuseria, 
 M. A. Robb, J. R. Cheeseman, G. Scalmani, V. Barone, 
 G. A. Petersson, H. Nakatsuji, X. Li, M. Caricato, A. V. Marenich, 
 J. Bloino, B. G. Janesko, R. Gomperts, B. Mennucci, H. P. Hratchian, 
 J. V. Ortiz, A. F. Izmaylov, J. L. Sonnenberg, D. Williams-Young, 
 F. Ding, F. Lipparini, F. Egidi, J. Goings, B. Peng, A. Petrone, 
 T. Henderson, D. Ranasinghe, V. G. Zakrzewski, J. Gao, N. Rega, 
 G. Zheng, W. Liang, M. Hada, M. Ehara, K. Toyota, R. Fukuda, 
 J. Hasegawa, M. Ishida, T. Nakajima, Y. Honda, O. Kitao, H. Nakai, 
 T. Vreven, K. Throssell, J. A. Montgomery, Jr., J. E. Peralta, 
 F. Ogliaro, M. J. Bearpark, J. J. Heyd, E. N. Brothers, K. N. Kudin, 
 V. N. Staroverov, T. A. Keith, R. Kobayashi, J. Normand, 
 K. Raghavachari, A. P. Rendell, J. C. Burant, S. S. Iyengar, 
 J. Tomasi, M. Cossi, J. M. Millam, M. Klene, C. Adamo, R. Cammi, 
 J. W. Ochterski, R. L. Martin, K. Morokuma, O. Farkas, 
 J. B. Foresman, and D. J. Fox, Gaussian, Inc., Wallingford CT, 2016.
 
 ******************************************
 Gaussian 16:  ES64L-G16RevA.03 25-Dec-2016
                14-Feb-2020 
 ******************************************
 %mem=360GB
 %nprocshared=40
 Will use up to   40 processors via shared memory.
 %Chk=/users/psyche/volatile/gaussian/nanohybrid/chk/A4_m.chk
 ----------------------------------------------------------------------
 # wB97XD/Def2SVP # Opt # SCRF=(SMD,Solvent=Water) # Integral=(Grid=Ult
 raFineGrid)
 ----------------------------------------------------------------------
 1/18=20,19=15,26=6,38=1/1,3;
 2/9=110,12=2,17=6,18=5,40=1/2;
 3/5=43,7=101,11=2,25=1,30=1,70=32201,71=1,72=1,74=-58,75=-5/1,2,3;
 4//1;
 5/5=2,38=5,53=1/2;
 6/7=2,8=2,9=2,10=2,28=1/1;
 7//1,2,3,16;
 1/18=20,19=15,26=6/3(2);
 2/9=110/2;
 99//99;
 2/9=110/2;
 3/5=43,7=101,11=2,25=1,30=1,70=32205,71=1,72=1,74=-58,75=-5/1,2,3;
 4/5=5,16=3,69=1/1;
 5/5=2,38=5,53=1/2;
 7//1,2,3,16;
 1/18=20,19=15,26=6/3(-5);
 2/9=110/2;
 6/7=2,8=2,9=2,10=2,19=2,28=1/1;
 99/9=1/99;
 ---------------------
 Modified structure D2
 ---------------------
 Symbolic Z-matrix:
 Charge =  0 Multiplicity = 1
 C                     0.30105  -3.72572   0.92803 
 C                    -8.54076  -8.32263   1.85883 
 C                    -8.43536  -7.21258   0.82471 
 C                     1.19599  -5.27814  -0.7102 
 N                    -9.36371  -10.62766   4.76107 
 H                     1.53404  -5.57055  -1.68269 
 C                     1.13035  -6.11692   0.362 
 N                     6.92242   6.84048  -6.09986 
 H                     0.69611  -3.04005  -1.08747 
 C                     0.70895  -3.83807  -0.37009 
 C                    -0.06976  -1.19111   0.80334 
 C                     1.27631   0.59345  -0.06494 
 C                     0.03095   1.17411  -0.7332 
 C                    -1.16921   0.58166  -0.65658 
 C                    -1.18262  -0.6607    0.21754 
 H                     1.79757  -2.21994   7.34456 
 H                    -0.46499  -1.47364   6.24255 
 N                    -6.34985  -7.58882   6.41618 
 C                    -4.23665  -3.05856   1.2131 
 C                    -2.36702  -1.50974   0.62422 
 C                    -6.93483  -7.95978   5.51427 
 S                    -3.1108   -4.98908   2.52198 
 O                    -7.09834  -5.13452   0.69533 
 C                    -4.87881  -5.06113   2.33926 
 S                    -4.13278  -1.49725   0.35255 
 C                    -5.38312  -4.04991   1.53448 
 C                    -0.01931  -1.87471   5.35849 
 H                     0.45054  -8.13994   0.13739 
 C                     1.25874  -2.34302   5.27747 
 H                     1.80382  -7.97704   1.23584 
 C                    -7.40732  -6.19567   1.27783 
 H                     2.06018  -7.86039  -0.49046 
 C                     1.38246  -7.63903   0.30849 
 H                    -1.78533  -1.67199   3.87157 
 C                    -3.05809  -3.46177   1.69326 
 C                    -1.93573  -2.50783   1.3645 
 C                    -9.15989  -7.19827  -0.3 
 C                    -7.67147  -7.93575   3.07641 
 H                    -6.39405  -3.94519   1.20403 
 C                    -9.29379  -9.41017   1.62208 
 C                    -10.04277  -8.42412  -0.59064 
 C                    -10.08555  -9.47182   0.29207 
 C                    -8.69152  -9.74553   4.55596 
 H                     2.98079  -3.04929   6.35872 
 H                     2.84143  -1.30686   6.27803 
 N                     8.9704    10.67587  -4.54936 
 C                     1.28577  -0.50301   0.69948 
 H                    -2.04231   0.96313  -1.13954 
 H                     2.16319  -0.87936   1.18126 
 C                    -0.40552  -2.49848   1.55873 
 S                     0.70481  -5.20966   1.82223 
 S                     1.54969  -3.08992   3.70008 
 C                     2.29773  -2.22747   6.40106 
 C                    -7.74614  -8.5214    4.32169 
 C                     0.0177   -2.48093   3.03569 
 C                    -0.76696  -1.97528   4.01376 
 H                    -9.12559  -6.36309  -0.97 
 H                    -10.62593  -8.43663  -1.49053 
 C                    -5.67144  -6.15535   3.06264 
 C                    -6.78697  -6.73221   2.57841 
 H                    -5.33135  -6.45555   4.0218 
 C                     0.40148   2.46645  -1.47089 
 H                    -10.66341  -10.34461   0.06435 
 H                    -9.33342  -10.223    2.31921 
 C                     1.94646   2.45986  -1.26077 
 C                     2.4149    1.46878  -0.49092 
 C                     3.0689    3.40297  -1.62543 
 C                     4.2481    3.02736  -1.11952 
 S                     4.17659   1.48469  -0.23041 
 S                     3.13086   4.88949  -2.53031 
 C                     4.88977   5.00256  -2.29302 
 C                     5.37638   4.03054  -1.45452 
 C                    -0.29546   3.6957   -0.8263 
 C                    -0.00059   2.46515  -2.94403 
 C                     5.73317   6.09417  -2.95972 
 C                     6.61547   6.79957  -2.2459 
 C                     0.81248   2.00031  -3.92305 
 C                     0.09178   1.90719  -5.28027 
 C                    -1.20775   2.32158  -5.20281 
 S                    -1.54069   3.02744  -3.61522 
 S                    -0.69349   5.17866  -1.72367 
 C                    -1.14004   6.08076  -0.26614 
 C                    -1.2026    5.24278   0.80661 
 C                    -0.70611   3.80862   0.47096 
 C                     6.98138   6.61655  -0.77064 
 C                     7.72547   7.89768  -0.3538 
 C                     7.88841   8.71452  -1.43042 
 C                     7.41888   8.01593  -2.72729 
 C                    -1.41236   7.60382  -0.21355 
 C                    -2.23462   2.174    -6.33382 
 O                     6.68608   5.63235  -0.03713 
 C                     7.6709    8.39315  -4.01286 
 C                     8.23718   8.28809   1.03215 
 C                     8.75901   9.53899   1.18711 
 C                     8.84014   10.51515  -0.01307 
 C                     8.45121   10.1183  -1.26054 
 C                     7.2348    7.48935  -5.20899 
 C                     8.42474   9.71735  -4.32406 
 H                     6.37591   3.96082  -1.08879 
 H                     5.58659   6.32211  -3.98982 
 H                     1.83402   1.72583  -3.76846 
 H                     0.5655    1.54638  -6.16748 
 H                    -1.53917   5.53918   1.77796 
 H                    -0.69346   3.00759   1.18681 
 H                    -2.10107   7.81834   0.57823 
 H                    -0.48872   8.11633  -0.03267 
 H                    -1.82777   7.93769  -1.1448 
 H                    -2.72311   1.22863  -6.24134 
 H                    -2.95868   2.96168  -6.27392 
 H                    -1.731     2.22819  -7.27788 
 H                     8.19334   7.58996   1.84871 
 H                     9.12564   9.84689   2.14319 
 H                     9.19048   11.50877   0.14168 
 H                     8.51912   10.77465  -2.09976 
 

 GradGradGradGradGradGradGradGradGradGradGradGradGradGradGradGradGradGrad
 Berny optimization.
 Initialization pass.
                           ----------------------------
                           !    Initial Parameters    !
                           ! (Angstroms and Degrees)  !
 --------------------------                            --------------------------
 ! Name  Definition              Value          Derivative Info.                !
 --------------------------------------------------------------------------------
 ! R1    R(1,10)                 1.3653         estimate D2E/DX2                !
 ! R2    R(1,50)                 1.5502         estimate D2E/DX2                !
 ! R3    R(1,51)                 1.779          estimate D2E/DX2                !
 ! R4    R(2,3)                  1.5208         estimate D2E/DX2                !
 ! R5    R(2,38)                 1.5453         estimate D2E/DX2                !
 ! R6    R(2,40)                 1.3438         estimate D2E/DX2                !
 ! R7    R(3,31)                 1.5154         estimate D2E/DX2                !
 ! R8    R(3,37)                 1.338          estimate D2E/DX2                !
 ! R9    R(4,6)                  1.0703         estimate D2E/DX2                !
 ! R10   R(4,7)                  1.3629         estimate D2E/DX2                !
 ! R11   R(4,10)                 1.5578         estimate D2E/DX2                !
 ! R12   R(5,43)                 1.1279         estimate D2E/DX2                !
 ! R13   R(7,33)                 1.5438         estimate D2E/DX2                !
 ! R14   R(7,51)                 1.771          estimate D2E/DX2                !
 ! R15   R(8,97)                 1.1455         estimate D2E/DX2                !
 ! R16   R(9,10)                 1.0731         estimate D2E/DX2                !
 ! R17   R(11,15)                1.3649         estimate D2E/DX2                !
 ! R18   R(11,47)                1.5237         estimate D2E/DX2                !
 ! R19   R(11,50)                1.5468         estimate D2E/DX2                !
 ! R20   R(12,13)                1.528          estimate D2E/DX2                !
 ! R21   R(12,47)                1.3367         estimate D2E/DX2                !
 ! R22   R(12,66)                1.498          estimate D2E/DX2                !
 ! R23   R(13,14)                1.3406         estimate D2E/DX2                !
 ! R24   R(13,62)                1.5335         estimate D2E/DX2                !
 ! R25   R(14,15)                1.5191         estimate D2E/DX2                !
 ! R26   R(14,48)                1.0682         estimate D2E/DX2                !
 ! R27   R(15,20)                1.513          estimate D2E/DX2                !
 ! R28   R(16,53)                1.0679         estimate D2E/DX2                !
 ! R29   R(17,27)                1.0682         estimate D2E/DX2                !
 ! R30   R(18,21)                1.1372         estimate D2E/DX2                !
 ! R31   R(19,25)                1.7858         estimate D2E/DX2                !
 ! R32   R(19,26)                1.5493         estimate D2E/DX2                !
 ! R33   R(19,35)                1.335          estimate D2E/DX2                !
 ! R34   R(20,25)                1.7866         estimate D2E/DX2                !
 ! R35   R(20,36)                1.3154         estimate D2E/DX2                !
 ! R36   R(21,54)                1.5479         estimate D2E/DX2                !
 ! R37   R(22,24)                1.7789         estimate D2E/DX2                !
 ! R38   R(22,35)                1.7385         estimate D2E/DX2                !
 ! R39   R(23,31)                1.2493         estimate D2E/DX2                !
 ! R40   R(24,26)                1.3873         estimate D2E/DX2                !
 ! R41   R(24,59)                1.5326         estimate D2E/DX2                !
 ! R42   R(26,39)                1.0687         estimate D2E/DX2                !
 ! R43   R(27,29)                1.3636         estimate D2E/DX2                !
 ! R44   R(27,56)                1.5419         estimate D2E/DX2                !
 ! R45   R(28,33)                1.0718         estimate D2E/DX2                !
 ! R46   R(29,52)                1.7694         estimate D2E/DX2                !
 ! R47   R(29,53)                1.5347         estimate D2E/DX2                !
 ! R48   R(30,33)                1.0732         estimate D2E/DX2                !
 ! R49   R(31,60)                1.5376         estimate D2E/DX2                !
 ! R50   R(32,33)                1.0708         estimate D2E/DX2                !
 ! R51   R(34,56)                1.072          estimate D2E/DX2                !
 ! R52   R(35,36)                1.5092         estimate D2E/DX2                !
 ! R53   R(36,50)                1.5425         estimate D2E/DX2                !
 ! R54   R(37,41)                1.5384         estimate D2E/DX2                !
 ! R55   R(37,57)                1.0713         estimate D2E/DX2                !
 ! R56   R(38,54)                1.3781         estimate D2E/DX2                !
 ! R57   R(38,60)                1.5744         estimate D2E/DX2                !
 ! R58   R(40,42)                1.5491         estimate D2E/DX2                !
 ! R59   R(40,64)                1.0716         estimate D2E/DX2                !
 ! R60   R(41,42)                1.3706         estimate D2E/DX2                !
 ! R61   R(41,58)                1.0724         estimate D2E/DX2                !
 ! R62   R(42,63)                1.0712         estimate D2E/DX2                !
 ! R63   R(43,54)                1.5643         estimate D2E/DX2                !
 ! R64   R(44,53)                1.0695         estimate D2E/DX2                !
 ! R65   R(45,53)                1.0762         estimate D2E/DX2                !
 ! R66   R(46,98)                1.1257         estimate D2E/DX2                !
 ! R67   R(47,49)                1.0694         estimate D2E/DX2                !
 ! R68   R(50,55)                1.5365         estimate D2E/DX2                !
 ! R69   R(52,55)                1.7774         estimate D2E/DX2                !
 ! R70   R(55,56)                1.352          estimate D2E/DX2                !
 ! R71   R(59,60)                1.346          estimate D2E/DX2                !
 ! R72   R(59,61)                1.061          estimate D2E/DX2                !
 ! R73   R(62,65)                1.5592         estimate D2E/DX2                !
 ! R74   R(62,73)                1.5532         estimate D2E/DX2                !
 ! R75   R(62,74)                1.527          estimate D2E/DX2                !
 ! R76   R(65,66)                1.3395         estimate D2E/DX2                !
 ! R77   R(65,67)                1.5107         estimate D2E/DX2                !
 ! R78   R(66,69)                1.7809         estimate D2E/DX2                !
 ! R79   R(67,68)                1.337          estimate D2E/DX2                !
 ! R80   R(67,70)                1.7414         estimate D2E/DX2                !
 ! R81   R(68,69)                1.782          estimate D2E/DX2                !
 ! R82   R(68,72)                1.5465         estimate D2E/DX2                !
 ! R83   R(70,71)                1.7784         estimate D2E/DX2                !
 ! R84   R(71,72)                1.3728         estimate D2E/DX2                !
 ! R85   R(71,75)                1.5321         estimate D2E/DX2                !
 ! R86   R(72,99)                1.0666         estimate D2E/DX2                !
 ! R87   R(73,81)                1.7784         estimate D2E/DX2                !
 ! R88   R(73,84)                1.3654         estimate D2E/DX2                !
 ! R89   R(74,77)                1.3549         estimate D2E/DX2                !
 ! R90   R(74,80)                1.7716         estimate D2E/DX2                !
 ! R91   R(75,76)                1.3363         estimate D2E/DX2                !
 ! R92   R(75,100)               1.0652         estimate D2E/DX2                !
 ! R93   R(76,85)                1.5309         estimate D2E/DX2                !
 ! R94   R(76,88)                1.5352         estimate D2E/DX2                !
 ! R95   R(77,78)                1.5395         estimate D2E/DX2                !
 ! R96   R(77,101)               1.069          estimate D2E/DX2                !
 ! R97   R(78,79)                1.3662         estimate D2E/DX2                !
 ! R98   R(78,102)               1.0685         estimate D2E/DX2                !
 ! R99   R(79,80)                1.769          estimate D2E/DX2                !
 ! R100  R(79,90)                1.5347         estimate D2E/DX2                !
 ! R101  R(81,82)                1.7713         estimate D2E/DX2                !
 ! R102  R(82,83)                1.3627         estimate D2E/DX2                !
 ! R103  R(82,89)                1.5481         estimate D2E/DX2                !
 ! R104  R(83,84)                1.5543         estimate D2E/DX2                !
 ! R105  R(83,103)               1.0699         estimate D2E/DX2                !
 ! R106  R(84,104)               1.0744         estimate D2E/DX2                !
 ! R107  R(85,86)                1.5391         estimate D2E/DX2                !
 ! R108  R(85,91)                1.2625         estimate D2E/DX2                !
 ! R109  R(86,87)                1.3612         estimate D2E/DX2                !
 ! R110  R(86,93)                1.5281         estimate D2E/DX2                !
 ! R111  R(87,88)                1.5461         estimate D2E/DX2                !
 ! R112  R(87,96)                1.5219         estimate D2E/DX2                !
 ! R113  R(88,92)                1.3633         estimate D2E/DX2                !
 ! R114  R(89,105)               1.0711         estimate D2E/DX2                !
 ! R115  R(89,106)               1.0717         estimate D2E/DX2                !
 ! R116  R(89,107)               1.073          estimate D2E/DX2                !
 ! R117  R(90,108)               1.0681         estimate D2E/DX2                !
 ! R118  R(90,109)               1.0716         estimate D2E/DX2                !
 ! R119  R(90,110)               1.0714         estimate D2E/DX2                !
 ! R120  R(92,97)                1.5613         estimate D2E/DX2                !
 ! R121  R(92,98)                1.5552         estimate D2E/DX2                !
 ! R122  R(93,94)                1.3642         estimate D2E/DX2                !
 ! R123  R(93,111)               1.0752         estimate D2E/DX2                !
 ! R124  R(94,95)                1.5492         estimate D2E/DX2                !
 ! R125  R(94,112)               1.0693         estimate D2E/DX2                !
 ! R126  R(95,96)                1.3656         estimate D2E/DX2                !
 ! R127  R(95,113)               1.0649         estimate D2E/DX2                !
 ! R128  R(96,114)               1.0676         estimate D2E/DX2                !
 ! A1    A(10,1,50)            126.0252         estimate D2E/DX2                !
 ! A2    A(10,1,51)            109.9655         estimate D2E/DX2                !
 ! A3    A(50,1,51)            124.0089         estimate D2E/DX2                !
 ! A4    A(3,2,38)             108.3047         estimate D2E/DX2                !
 ! A5    A(3,2,40)             120.6479         estimate D2E/DX2                !
 ! A6    A(38,2,40)            131.0461         estimate D2E/DX2                !
 ! A7    A(2,3,31)             109.4827         estimate D2E/DX2                !
 ! A8    A(2,3,37)             122.813          estimate D2E/DX2                !
 ! A9    A(31,3,37)            127.7023         estimate D2E/DX2                !
 ! A10   A(6,4,7)              124.1869         estimate D2E/DX2                !
 ! A11   A(6,4,10)             123.3459         estimate D2E/DX2                !
 ! A12   A(7,4,10)             112.4647         estimate D2E/DX2                !
 ! A13   A(4,7,33)             124.8668         estimate D2E/DX2                !
 ! A14   A(4,7,51)             110.1785         estimate D2E/DX2                !
 ! A15   A(33,7,51)            124.9538         estimate D2E/DX2                !
 ! A16   A(1,10,4)             112.1518         estimate D2E/DX2                !
 ! A17   A(1,10,9)             124.8066         estimate D2E/DX2                !
 ! A18   A(4,10,9)             123.0404         estimate D2E/DX2                !
 ! A19   A(15,11,47)           121.3726         estimate D2E/DX2                !
 ! A20   A(15,11,50)           111.1655         estimate D2E/DX2                !
 ! A21   A(47,11,50)           127.4513         estimate D2E/DX2                !
 ! A22   A(13,12,47)           124.5846         estimate D2E/DX2                !
 ! A23   A(13,12,66)           105.8467         estimate D2E/DX2                !
 ! A24   A(47,12,66)           129.5362         estimate D2E/DX2                !
 ! A25   A(12,13,14)           122.4608         estimate D2E/DX2                !
 ! A26   A(12,13,62)           109.4942         estimate D2E/DX2                !
 ! A27   A(14,13,62)           128.0411         estimate D2E/DX2                !
 ! A28   A(13,14,15)           113.7157         estimate D2E/DX2                !
 ! A29   A(13,14,48)           123.2343         estimate D2E/DX2                !
 ! A30   A(15,14,48)           123.0239         estimate D2E/DX2                !
 ! A31   A(11,15,14)           123.8877         estimate D2E/DX2                !
 ! A32   A(11,15,20)           107.7486         estimate D2E/DX2                !
 ! A33   A(14,15,20)           128.354          estimate D2E/DX2                !
 ! A34   A(25,19,26)           134.6218         estimate D2E/DX2                !
 ! A35   A(25,19,35)           112.7081         estimate D2E/DX2                !
 ! A36   A(26,19,35)           112.6696         estimate D2E/DX2                !
 ! A37   A(15,20,25)           136.7954         estimate D2E/DX2                !
 ! A38   A(15,20,36)           108.6877         estimate D2E/DX2                !
 ! A39   A(25,20,36)           114.516          estimate D2E/DX2                !
 ! A40   A(24,22,35)            90.9601         estimate D2E/DX2                !
 ! A41   A(22,24,26)           113.0394         estimate D2E/DX2                !
 ! A42   A(22,24,59)           119.6338         estimate D2E/DX2                !
 ! A43   A(26,24,59)           127.317          estimate D2E/DX2                !
 ! A44   A(19,25,20)            88.7452         estimate D2E/DX2                !
 ! A45   A(19,26,24)           108.5259         estimate D2E/DX2                !
 ! A46   A(19,26,39)           124.9688         estimate D2E/DX2                !
 ! A47   A(24,26,39)           126.489          estimate D2E/DX2                !
 ! A48   A(17,27,29)           124.6938         estimate D2E/DX2                !
 ! A49   A(17,27,56)           122.9549         estimate D2E/DX2                !
 ! A50   A(29,27,56)           112.3497         estimate D2E/DX2                !
 ! A51   A(27,29,52)           110.6146         estimate D2E/DX2                !
 ! A52   A(27,29,53)           124.4147         estimate D2E/DX2                !
 ! A53   A(52,29,53)           124.9699         estimate D2E/DX2                !
 ! A54   A(3,31,23)            126.7527         estimate D2E/DX2                !
 ! A55   A(3,31,60)            107.0054         estimate D2E/DX2                !
 ! A56   A(23,31,60)           126.2271         estimate D2E/DX2                !
 ! A57   A(7,33,28)            108.9255         estimate D2E/DX2                !
 ! A58   A(7,33,30)            110.1638         estimate D2E/DX2                !
 ! A59   A(7,33,32)            109.4533         estimate D2E/DX2                !
 ! A60   A(28,33,30)           109.3988         estimate D2E/DX2                !
 ! A61   A(28,33,32)           109.548          estimate D2E/DX2                !
 ! A62   A(30,33,32)           109.3371         estimate D2E/DX2                !
 ! A63   A(19,35,22)           114.207          estimate D2E/DX2                !
 ! A64   A(19,35,36)           112.7856         estimate D2E/DX2                !
 ! A65   A(22,35,36)           132.976          estimate D2E/DX2                !
 ! A66   A(20,36,35)           110.9999         estimate D2E/DX2                !
 ! A67   A(20,36,50)           113.05           estimate D2E/DX2                !
 ! A68   A(35,36,50)           135.5723         estimate D2E/DX2                !
 ! A69   A(3,37,41)            117.4561         estimate D2E/DX2                !
 ! A70   A(3,37,57)            121.1144         estimate D2E/DX2                !
 ! A71   A(41,37,57)           121.4294         estimate D2E/DX2                !
 ! A72   A(2,38,54)            125.1071         estimate D2E/DX2                !
 ! A73   A(2,38,60)            104.9625         estimate D2E/DX2                !
 ! A74   A(54,38,60)           129.8735         estimate D2E/DX2                !
 ! A75   A(2,40,42)            118.0268         estimate D2E/DX2                !
 ! A76   A(2,40,64)            121.3318         estimate D2E/DX2                !
 ! A77   A(42,40,64)           120.6292         estimate D2E/DX2                !
 ! A78   A(37,41,42)           120.3535         estimate D2E/DX2                !
 ! A79   A(37,41,58)           118.6794         estimate D2E/DX2                !
 ! A80   A(42,41,58)           120.9655         estimate D2E/DX2                !
 ! A81   A(40,42,41)           120.4351         estimate D2E/DX2                !
 ! A82   A(40,42,63)           119.3831         estimate D2E/DX2                !
 ! A83   A(41,42,63)           120.1807         estimate D2E/DX2                !
 ! A84   A(11,47,12)           113.7734         estimate D2E/DX2                !
 ! A85   A(11,47,49)           122.7027         estimate D2E/DX2                !
 ! A86   A(12,47,49)           123.5138         estimate D2E/DX2                !
 ! A87   A(1,50,11)            111.8076         estimate D2E/DX2                !
 ! A88   A(1,50,36)            113.3358         estimate D2E/DX2                !
 ! A89   A(1,50,55)            105.9369         estimate D2E/DX2                !
 ! A90   A(11,50,36)            99.1471         estimate D2E/DX2                !
 ! A91   A(11,50,55)           113.5779         estimate D2E/DX2                !
 ! A92   A(36,50,55)           113.2262         estimate D2E/DX2                !
 ! A93   A(1,51,7)              93.866          estimate D2E/DX2                !
 ! A94   A(29,52,55)            92.6866         estimate D2E/DX2                !
 ! A95   A(16,53,29)           109.2865         estimate D2E/DX2                !
 ! A96   A(16,53,44)           109.8489         estimate D2E/DX2                !
 ! A97   A(16,53,45)           109.365          estimate D2E/DX2                !
 ! A98   A(29,53,44)           110.215          estimate D2E/DX2                !
 ! A99   A(29,53,45)           108.8274         estimate D2E/DX2                !
 ! A100  A(44,53,45)           109.2772         estimate D2E/DX2                !
 ! A101  A(21,54,38)           120.9038         estimate D2E/DX2                !
 ! A102  A(21,54,43)           119.0328         estimate D2E/DX2                !
 ! A103  A(38,54,43)           120.0398         estimate D2E/DX2                !
 ! A104  A(50,55,52)           126.3564         estimate D2E/DX2                !
 ! A105  A(50,55,56)           122.6687         estimate D2E/DX2                !
 ! A106  A(52,55,56)           110.9747         estimate D2E/DX2                !
 ! A107  A(27,56,34)           123.906          estimate D2E/DX2                !
 ! A108  A(27,56,55)           111.9556         estimate D2E/DX2                !
 ! A109  A(34,56,55)           124.1365         estimate D2E/DX2                !
 ! A110  A(24,59,60)           124.3899         estimate D2E/DX2                !
 ! A111  A(24,59,61)           117.575          estimate D2E/DX2                !
 ! A112  A(60,59,61)           118.0094         estimate D2E/DX2                !
 ! A113  A(31,60,38)           107.9169         estimate D2E/DX2                !
 ! A114  A(31,60,59)           119.2833         estimate D2E/DX2                !
 ! A115  A(38,60,59)           132.7989         estimate D2E/DX2                !
 ! A116  A(13,62,65)            99.8478         estimate D2E/DX2                !
 ! A117  A(13,62,73)           111.034          estimate D2E/DX2                !
 ! A118  A(13,62,74)           113.5617         estimate D2E/DX2                !
 ! A119  A(65,62,73)           113.082          estimate D2E/DX2                !
 ! A120  A(65,62,74)           113.0104         estimate D2E/DX2                !
 ! A121  A(73,62,74)           106.4332         estimate D2E/DX2                !
 ! A122  A(62,65,66)           115.2827         estimate D2E/DX2                !
 ! A123  A(62,65,67)           134.5097         estimate D2E/DX2                !
 ! A124  A(66,65,67)           109.9247         estimate D2E/DX2                !
 ! A125  A(12,66,65)           109.2663         estimate D2E/DX2                !
 ! A126  A(12,66,69)           135.6825         estimate D2E/DX2                !
 ! A127  A(65,66,69)           115.0487         estimate D2E/DX2                !
 ! A128  A(65,67,68)           112.8661         estimate D2E/DX2                !
 ! A129  A(65,67,70)           133.2177         estimate D2E/DX2                !
 ! A130  A(68,67,70)           113.8952         estimate D2E/DX2                !
 ! A131  A(67,68,69)           113.3666         estimate D2E/DX2                !
 ! A132  A(67,68,72)           112.2883         estimate D2E/DX2                !
 ! A133  A(69,68,72)           134.3411         estimate D2E/DX2                !
 ! A134  A(66,69,68)            88.5354         estimate D2E/DX2                !
 ! A135  A(67,70,71)            91.1533         estimate D2E/DX2                !
 ! A136  A(70,71,72)           112.7705         estimate D2E/DX2                !
 ! A137  A(70,71,75)           122.1181         estimate D2E/DX2                !
 ! A138  A(72,71,75)           125.108          estimate D2E/DX2                !
 ! A139  A(68,72,71)           109.451          estimate D2E/DX2                !
 ! A140  A(68,72,99)           124.5418         estimate D2E/DX2                !
 ! A141  A(71,72,99)           126.0058         estimate D2E/DX2                !
 ! A142  A(62,73,81)           123.4337         estimate D2E/DX2                !
 ! A143  A(62,73,84)           126.4932         estimate D2E/DX2                !
 ! A144  A(81,73,84)           110.0679         estimate D2E/DX2                !
 ! A145  A(62,74,77)           122.6418         estimate D2E/DX2                !
 ! A146  A(62,74,80)           126.4494         estimate D2E/DX2                !
 ! A147  A(77,74,80)           110.9054         estimate D2E/DX2                !
 ! A148  A(71,75,76)           120.4728         estimate D2E/DX2                !
 ! A149  A(71,75,100)          119.8372         estimate D2E/DX2                !
 ! A150  A(76,75,100)          119.6376         estimate D2E/DX2                !
 ! A151  A(75,76,85)           127.551          estimate D2E/DX2                !
 ! A152  A(75,76,88)           126.6056         estimate D2E/DX2                !
 ! A153  A(85,76,88)           105.7721         estimate D2E/DX2                !
 ! A154  A(74,77,78)           112.1388         estimate D2E/DX2                !
 ! A155  A(74,77,101)          123.8525         estimate D2E/DX2                !
 ! A156  A(78,77,101)          124.0081         estimate D2E/DX2                !
 ! A157  A(77,78,79)           112.1453         estimate D2E/DX2                !
 ! A158  A(77,78,102)          123.0158         estimate D2E/DX2                !
 ! A159  A(79,78,102)          124.8349         estimate D2E/DX2                !
 ! A160  A(78,79,80)           110.5444         estimate D2E/DX2                !
 ! A161  A(78,79,90)           124.4354         estimate D2E/DX2                !
 ! A162  A(80,79,90)           125.0153         estimate D2E/DX2                !
 ! A163  A(74,80,79)            92.8514         estimate D2E/DX2                !
 ! A164  A(73,81,82)            93.7779         estimate D2E/DX2                !
 ! A165  A(81,82,83)           110.2531         estimate D2E/DX2                !
 ! A166  A(81,82,89)           124.9833         estimate D2E/DX2                !
 ! A167  A(83,82,89)           124.7627         estimate D2E/DX2                !
 ! A168  A(82,83,84)           112.5033         estimate D2E/DX2                !
 ! A169  A(82,83,103)          123.9734         estimate D2E/DX2                !
 ! A170  A(84,83,103)          123.5152         estimate D2E/DX2                !
 ! A171  A(73,84,83)           112.1819         estimate D2E/DX2                !
 ! A172  A(73,84,104)          124.6008         estimate D2E/DX2                !
 ! A173  A(83,84,104)          123.2173         estimate D2E/DX2                !
 ! A174  A(76,85,86)           106.0831         estimate D2E/DX2                !
 ! A175  A(76,85,91)           126.6666         estimate D2E/DX2                !
 ! A176  A(86,85,91)           127.2035         estimate D2E/DX2                !
 ! A177  A(85,86,87)           110.07           estimate D2E/DX2                !
 ! A178  A(85,86,93)           128.3314         estimate D2E/DX2                !
 ! A179  A(87,86,93)           121.598          estimate D2E/DX2                !
 ! A180  A(86,87,88)           110.8517         estimate D2E/DX2                !
 ! A181  A(86,87,96)           120.6294         estimate D2E/DX2                !
 ! A182  A(88,87,96)           128.5142         estimate D2E/DX2                !
 ! A183  A(76,88,87)           104.7091         estimate D2E/DX2                !
 ! A184  A(76,88,92)           127.7116         estimate D2E/DX2                !
 ! A185  A(87,88,92)           127.578          estimate D2E/DX2                !
 ! A186  A(82,89,105)          109.5882         estimate D2E/DX2                !
 ! A187  A(82,89,106)          108.9424         estimate D2E/DX2                !
 ! A188  A(82,89,107)          110.1667         estimate D2E/DX2                !
 ! A189  A(105,89,106)         109.4884         estimate D2E/DX2                !
 ! A190  A(105,89,107)         109.2887         estimate D2E/DX2                !
 ! A191  A(106,89,107)         109.3515         estimate D2E/DX2                !
 ! A192  A(79,90,108)          109.105          estimate D2E/DX2                !
 ! A193  A(79,90,109)          109.8896         estimate D2E/DX2                !
 ! A194  A(79,90,110)          109.2686         estimate D2E/DX2                !
 ! A195  A(108,90,109)         109.6776         estimate D2E/DX2                !
 ! A196  A(108,90,110)         109.6359         estimate D2E/DX2                !
 ! A197  A(109,90,110)         109.2505         estimate D2E/DX2                !
 ! A198  A(88,92,97)           120.7058         estimate D2E/DX2                !
 ! A199  A(88,92,98)           120.9247         estimate D2E/DX2                !
 ! A200  A(97,92,98)           118.3575         estimate D2E/DX2                !
 ! A201  A(86,93,94)           117.7345         estimate D2E/DX2                !
 ! A202  A(86,93,111)          120.6138         estimate D2E/DX2                !
 ! A203  A(94,93,111)          121.6482         estimate D2E/DX2                !
 ! A204  A(93,94,95)           120.6517         estimate D2E/DX2                !
 ! A205  A(93,94,112)          119.7861         estimate D2E/DX2                !
 ! A206  A(95,94,112)          119.559          estimate D2E/DX2                !
 ! A207  A(94,95,96)           120.6417         estimate D2E/DX2                !
 ! A208  A(94,95,113)          119.5119         estimate D2E/DX2                !
 ! A209  A(96,95,113)          119.8411         estimate D2E/DX2                !
 ! A210  A(87,96,95)           118.3807         estimate D2E/DX2                !
 ! A211  A(87,96,114)          120.19           estimate D2E/DX2                !
 ! A212  A(95,96,114)          121.4199         estimate D2E/DX2                !
 ! A213  L(18,21,54,1,-1)      182.0049         estimate D2E/DX2                !
 ! A214  L(5,43,54,40,-1)      181.8993         estimate D2E/DX2                !
 ! A215  L(8,97,92,1,-1)       181.0429         estimate D2E/DX2                !
 ! A216  L(46,98,92,94,-1)     180.0016         estimate D2E/DX2                !
 ! A217  L(18,21,54,1,-2)      178.4342         estimate D2E/DX2                !
 ! A218  L(5,43,54,40,-2)      179.9296         estimate D2E/DX2                !
 ! A219  L(8,97,92,1,-2)       180.0715         estimate D2E/DX2                !
 ! A220  L(46,98,92,94,-2)     180.0002         estimate D2E/DX2                !
 ! D1    D(50,1,10,4)         -171.8008         estimate D2E/DX2                !
 ! D2    D(50,1,10,9)            7.809          estimate D2E/DX2                !
 ! D3    D(51,1,10,4)            8.4385         estimate D2E/DX2                !
 ! D4    D(51,1,10,9)         -171.9517         estimate D2E/DX2                !
 ! D5    D(10,1,50,11)         -25.4331         estimate D2E/DX2                !
 ! D6    D(10,1,50,36)          85.6115         estimate D2E/DX2                !
 ! D7    D(10,1,50,55)        -149.6485         estimate D2E/DX2                !
 ! D8    D(51,1,50,11)         154.2955         estimate D2E/DX2                !
 ! D9    D(51,1,50,36)         -94.6599         estimate D2E/DX2                !
 ! D10   D(51,1,50,55)          30.0801         estimate D2E/DX2                !
 ! D11   D(10,1,51,7)          -10.8832         estimate D2E/DX2                !
 ! D12   D(50,1,51,7)          169.3503         estimate D2E/DX2                !
 ! D13   D(38,2,3,31)            6.0752         estimate D2E/DX2                !
 ! D14   D(38,2,3,37)         -174.4097         estimate D2E/DX2                !
 ! D15   D(40,2,3,31)         -173.5474         estimate D2E/DX2                !
 ! D16   D(40,2,3,37)            5.9677         estimate D2E/DX2                !
 ! D17   D(3,2,38,54)          164.3146         estimate D2E/DX2                !
 ! D18   D(3,2,38,60)          -13.1695         estimate D2E/DX2                !
 ! D19   D(40,2,38,54)         -16.1158         estimate D2E/DX2                !
 ! D20   D(40,2,38,60)         166.4            estimate D2E/DX2                !
 ! D21   D(3,2,40,42)           -2.1385         estimate D2E/DX2                !
 ! D22   D(3,2,40,64)          176.5997         estimate D2E/DX2                !
 ! D23   D(38,2,40,42)         178.3366         estimate D2E/DX2                !
 ! D24   D(38,2,40,64)          -2.9252         estimate D2E/DX2                !
 ! D25   D(2,3,31,23)         -177.4652         estimate D2E/DX2                !
 ! D26   D(2,3,31,60)            3.8708         estimate D2E/DX2                !
 ! D27   D(37,3,31,23)           3.0499         estimate D2E/DX2                !
 ! D28   D(37,3,31,60)        -175.6141         estimate D2E/DX2                !
 ! D29   D(2,3,37,41)           -5.1314         estimate D2E/DX2                !
 ! D30   D(2,3,37,57)          174.7835         estimate D2E/DX2                !
 ! D31   D(31,3,37,41)         174.2908         estimate D2E/DX2                !
 ! D32   D(31,3,37,57)          -5.7943         estimate D2E/DX2                !
 ! D33   D(6,4,7,33)            -6.9907         estimate D2E/DX2                !
 ! D34   D(6,4,7,51)           173.3448         estimate D2E/DX2                !
 ! D35   D(10,4,7,33)          172.4484         estimate D2E/DX2                !
 ! D36   D(10,4,7,51)           -7.216          estimate D2E/DX2                !
 ! D37   D(6,4,10,1)           178.5904         estimate D2E/DX2                !
 ! D38   D(6,4,10,9)            -1.0275         estimate D2E/DX2                !
 ! D39   D(7,4,10,1)            -0.8542         estimate D2E/DX2                !
 ! D40   D(7,4,10,9)           179.5279         estimate D2E/DX2                !
 ! D41   D(4,7,33,28)          -91.3664         estimate D2E/DX2                !
 ! D42   D(4,7,33,30)          148.6366         estimate D2E/DX2                !
 ! D43   D(4,7,33,32)           28.3849         estimate D2E/DX2                !
 ! D44   D(51,7,33,28)          88.2493         estimate D2E/DX2                !
 ! D45   D(51,7,33,30)         -31.7476         estimate D2E/DX2                !
 ! D46   D(51,7,33,32)        -151.9993         estimate D2E/DX2                !
 ! D47   D(4,7,51,1)            10.3859         estimate D2E/DX2                !
 ! D48   D(33,7,51,1)         -169.2782         estimate D2E/DX2                !
 ! D49   D(47,11,15,14)          4.4155         estimate D2E/DX2                !
 ! D50   D(47,11,15,20)       -174.5353         estimate D2E/DX2                !
 ! D51   D(50,11,15,14)       -176.6845         estimate D2E/DX2                !
 ! D52   D(50,11,15,20)          4.3647         estimate D2E/DX2                !
 ! D53   D(15,11,47,12)         -3.5441         estimate D2E/DX2                !
 ! D54   D(15,11,47,49)        177.574          estimate D2E/DX2                !
 ! D55   D(50,11,47,12)        177.7482         estimate D2E/DX2                !
 ! D56   D(50,11,47,49)         -1.1338         estimate D2E/DX2                !
 ! D57   D(15,11,50,1)         115.3375         estimate D2E/DX2                !
 ! D58   D(15,11,50,36)         -4.4361         estimate D2E/DX2                !
 ! D59   D(15,11,50,55)       -124.8404         estimate D2E/DX2                !
 ! D60   D(47,11,50,1)         -65.8456         estimate D2E/DX2                !
 ! D61   D(47,11,50,36)        174.3808         estimate D2E/DX2                !
 ! D62   D(47,11,50,55)         53.9765         estimate D2E/DX2                !
 ! D63   D(47,12,13,14)         -3.2962         estimate D2E/DX2                !
 ! D64   D(47,12,13,62)        177.3634         estimate D2E/DX2                !
 ! D65   D(66,12,13,14)        174.8004         estimate D2E/DX2                !
 ! D66   D(66,12,13,62)         -4.54           estimate D2E/DX2                !
 ! D67   D(13,12,47,11)          2.8819         estimate D2E/DX2                !
 ! D68   D(13,12,47,49)       -178.2465         estimate D2E/DX2                !
 ! D69   D(66,12,47,11)       -174.7436         estimate D2E/DX2                !
 ! D70   D(66,12,47,49)          4.128          estimate D2E/DX2                !
 ! D71   D(13,12,66,65)          1.8488         estimate D2E/DX2                !
 ! D72   D(13,12,66,69)       -177.5315         estimate D2E/DX2                !
 ! D73   D(47,12,66,65)        179.8169         estimate D2E/DX2                !
 ! D74   D(47,12,66,69)          0.4365         estimate D2E/DX2                !
 ! D75   D(12,13,14,15)          3.4308         estimate D2E/DX2                !
 ! D76   D(12,13,14,48)       -178.3779         estimate D2E/DX2                !
 ! D77   D(62,13,14,15)       -177.3587         estimate D2E/DX2                !
 ! D78   D(62,13,14,48)          0.8326         estimate D2E/DX2                !
 ! D79   D(12,13,62,65)          5.018          estimate D2E/DX2                !
 ! D80   D(12,13,62,73)       -114.5246         estimate D2E/DX2                !
 ! D81   D(12,13,62,74)        125.5839         estimate D2E/DX2                !
 ! D82   D(14,13,62,65)       -174.2753         estimate D2E/DX2                !
 ! D83   D(14,13,62,73)         66.1821         estimate D2E/DX2                !
 ! D84   D(14,13,62,74)        -53.7094         estimate D2E/DX2                !
 ! D85   D(13,14,15,11)         -4.2752         estimate D2E/DX2                !
 ! D86   D(13,14,15,20)        174.4505         estimate D2E/DX2                !
 ! D87   D(48,14,15,11)        177.5291         estimate D2E/DX2                !
 ! D88   D(48,14,15,20)         -3.7452         estimate D2E/DX2                !
 ! D89   D(11,15,20,25)        177.9918         estimate D2E/DX2                !
 ! D90   D(11,15,20,36)         -2.3665         estimate D2E/DX2                !
 ! D91   D(14,15,20,25)         -0.8975         estimate D2E/DX2                !
 ! D92   D(14,15,20,36)        178.7442         estimate D2E/DX2                !
 ! D93   D(26,19,25,20)       -177.1648         estimate D2E/DX2                !
 ! D94   D(35,19,25,20)          3.1094         estimate D2E/DX2                !
 ! D95   D(25,19,26,24)       -175.2034         estimate D2E/DX2                !
 ! D96   D(25,19,26,39)          3.4058         estimate D2E/DX2                !
 ! D97   D(35,19,26,24)          4.5224         estimate D2E/DX2                !
 ! D98   D(35,19,26,39)       -176.8683         estimate D2E/DX2                !
 ! D99   D(25,19,35,22)       -179.2717         estimate D2E/DX2                !
 ! D100  D(25,19,35,36)         -1.0415         estimate D2E/DX2                !
 ! D101  D(26,19,35,22)          0.9398         estimate D2E/DX2                !
 ! D102  D(26,19,35,36)        179.17           estimate D2E/DX2                !
 ! D103  D(15,20,25,19)        174.8376         estimate D2E/DX2                !
 ! D104  D(36,20,25,19)         -4.7894         estimate D2E/DX2                !
 ! D105  D(15,20,36,35)       -174.7113         estimate D2E/DX2                !
 ! D106  D(15,20,36,50)         -0.6434         estimate D2E/DX2                !
 ! D107  D(25,20,36,35)          5.0191         estimate D2E/DX2                !
 ! D108  D(25,20,36,50)        179.087          estimate D2E/DX2                !
 ! D109  D(35,22,24,26)          7.3926         estimate D2E/DX2                !
 ! D110  D(35,22,24,59)       -171.5495         estimate D2E/DX2                !
 ! D111  D(24,22,35,19)         -4.5828         estimate D2E/DX2                !
 ! D112  D(24,22,35,36)        177.6475         estimate D2E/DX2                !
 ! D113  D(22,24,26,19)         -7.833          estimate D2E/DX2                !
 ! D114  D(22,24,26,39)        173.5846         estimate D2E/DX2                !
 ! D115  D(59,24,26,19)        171.0108         estimate D2E/DX2                !
 ! D116  D(59,24,26,39)         -7.5716         estimate D2E/DX2                !
 ! D117  D(22,24,59,60)       -146.5908         estimate D2E/DX2                !
 ! D118  D(22,24,59,61)         35.2941         estimate D2E/DX2                !
 ! D119  D(26,24,59,60)         34.6334         estimate D2E/DX2                !
 ! D120  D(26,24,59,61)       -143.4818         estimate D2E/DX2                !
 ! D121  D(17,27,29,52)        173.4392         estimate D2E/DX2                !
 ! D122  D(17,27,29,53)         -6.8698         estimate D2E/DX2                !
 ! D123  D(56,27,29,52)         -7.0095         estimate D2E/DX2                !
 ! D124  D(56,27,29,53)        172.6816         estimate D2E/DX2                !
 ! D125  D(17,27,56,34)         -1.2792         estimate D2E/DX2                !
 ! D126  D(17,27,56,55)        178.2382         estimate D2E/DX2                !
 ! D127  D(29,27,56,34)        179.1604         estimate D2E/DX2                !
 ! D128  D(29,27,56,55)         -1.3222         estimate D2E/DX2                !
 ! D129  D(27,29,52,55)         10.3169         estimate D2E/DX2                !
 ! D130  D(53,29,52,55)       -169.3721         estimate D2E/DX2                !
 ! D131  D(27,29,53,16)         29.0695         estimate D2E/DX2                !
 ! D132  D(27,29,53,44)        149.8797         estimate D2E/DX2                !
 ! D133  D(27,29,53,45)        -90.3022         estimate D2E/DX2                !
 ! D134  D(52,29,53,16)       -151.2834         estimate D2E/DX2                !
 ! D135  D(52,29,53,44)        -30.4731         estimate D2E/DX2                !
 ! D136  D(52,29,53,45)         89.345          estimate D2E/DX2                !
 ! D137  D(3,31,60,38)         -12.1548         estimate D2E/DX2                !
 ! D138  D(3,31,60,59)         167.5285         estimate D2E/DX2                !
 ! D139  D(23,31,60,38)        169.1722         estimate D2E/DX2                !
 ! D140  D(23,31,60,59)        -11.1445         estimate D2E/DX2                !
 ! D141  D(19,35,36,20)         -2.5702         estimate D2E/DX2                !
 ! D142  D(19,35,36,50)       -174.7622         estimate D2E/DX2                !
 ! D143  D(22,35,36,20)        175.2234         estimate D2E/DX2                !
 ! D144  D(22,35,36,50)          3.0314         estimate D2E/DX2                !
 ! D145  D(20,36,50,1)        -115.6769         estimate D2E/DX2                !
 ! D146  D(20,36,50,11)          2.9603         estimate D2E/DX2                !
 ! D147  D(20,36,50,55)        123.6227         estimate D2E/DX2                !
 ! D148  D(35,36,50,1)          56.4005         estimate D2E/DX2                !
 ! D149  D(35,36,50,11)        175.0377         estimate D2E/DX2                !
 ! D150  D(35,36,50,55)        -64.3            estimate D2E/DX2                !
 ! D151  D(3,37,41,42)           0.9174         estimate D2E/DX2                !
 ! D152  D(3,37,41,58)        -179.5348         estimate D2E/DX2                !
 ! D153  D(57,37,41,42)       -178.9973         estimate D2E/DX2                !
 ! D154  D(57,37,41,58)          0.5506         estimate D2E/DX2                !
 ! D155  D(2,38,54,21)        -173.4903         estimate D2E/DX2                !
 ! D156  D(2,38,54,43)           4.726          estimate D2E/DX2                !
 ! D157  D(60,38,54,21)          3.3421         estimate D2E/DX2                !
 ! D158  D(60,38,54,43)       -178.4416         estimate D2E/DX2                !
 ! D159  D(2,38,60,31)          15.5699         estimate D2E/DX2                !
 ! D160  D(2,38,60,59)        -164.0536         estimate D2E/DX2                !
 ! D161  D(54,38,60,31)       -161.7482         estimate D2E/DX2                !
 ! D162  D(54,38,60,59)         18.6283         estimate D2E/DX2                !
 ! D163  D(2,40,42,41)          -1.9144         estimate D2E/DX2                !
 ! D164  D(2,40,42,63)         177.7066         estimate D2E/DX2                !
 ! D165  D(64,40,42,41)        179.3382         estimate D2E/DX2                !
 ! D166  D(64,40,42,63)         -1.0409         estimate D2E/DX2                !
 ! D167  D(37,41,42,40)          2.6288         estimate D2E/DX2                !
 ! D168  D(37,41,42,63)       -176.9891         estimate D2E/DX2                !
 ! D169  D(58,41,42,40)       -176.9086         estimate D2E/DX2                !
 ! D170  D(58,41,42,63)          3.4734         estimate D2E/DX2                !
 ! D171  D(1,50,55,52)          29.3814         estimate D2E/DX2                !
 ! D172  D(1,50,55,56)        -150.817          estimate D2E/DX2                !
 ! D173  D(11,50,55,52)        -93.7223         estimate D2E/DX2                !
 ! D174  D(11,50,55,56)         86.0794         estimate D2E/DX2                !
 ! D175  D(36,50,55,52)        154.1893         estimate D2E/DX2                !
 ! D176  D(36,50,55,56)        -26.009          estimate D2E/DX2                !
 ! D177  D(29,52,55,50)        168.6363         estimate D2E/DX2                !
 ! D178  D(29,52,55,56)        -11.1849         estimate D2E/DX2                !
 ! D179  D(50,55,56,27)       -170.8558         estimate D2E/DX2                !
 ! D180  D(50,55,56,34)          8.6604         estimate D2E/DX2                !
 ! D181  D(52,55,56,27)          8.9732         estimate D2E/DX2                !
 ! D182  D(52,55,56,34)       -171.5107         estimate D2E/DX2                !
 ! D183  D(24,59,60,31)         -5.8723         estimate D2E/DX2                !
 ! D184  D(24,59,60,38)        173.717          estimate D2E/DX2                !
 ! D185  D(61,59,60,31)        172.2353         estimate D2E/DX2                !
 ! D186  D(61,59,60,38)         -8.1754         estimate D2E/DX2                !
 ! D187  D(13,62,65,66)         -4.1672         estimate D2E/DX2                !
 ! D188  D(13,62,65,67)       -177.2907         estimate D2E/DX2                !
 ! D189  D(73,62,65,66)        113.865          estimate D2E/DX2                !
 ! D190  D(73,62,65,67)        -59.2584         estimate D2E/DX2                !
 ! D191  D(74,62,65,66)       -125.1318         estimate D2E/DX2                !
 ! D192  D(74,62,65,67)         61.7448         estimate D2E/DX2                !
 ! D193  D(13,62,73,81)       -152.9345         estimate D2E/DX2                !
 ! D194  D(13,62,73,84)         26.1629         estimate D2E/DX2                !
 ! D195  D(65,62,73,81)         95.7768         estimate D2E/DX2                !
 ! D196  D(65,62,73,84)        -85.1258         estimate D2E/DX2                !
 ! D197  D(74,62,73,81)        -28.8833         estimate D2E/DX2                !
 ! D198  D(74,62,73,84)        150.2141         estimate D2E/DX2                !
 ! D199  D(13,62,74,77)        -89.0988         estimate D2E/DX2                !
 ! D200  D(13,62,74,80)         90.1696         estimate D2E/DX2                !
 ! D201  D(65,62,74,77)         23.7264         estimate D2E/DX2                !
 ! D202  D(65,62,74,80)       -157.0053         estimate D2E/DX2                !
 ! D203  D(73,62,74,77)        148.4305         estimate D2E/DX2                !
 ! D204  D(73,62,74,80)        -32.3012         estimate D2E/DX2                !
 ! D205  D(62,65,66,12)          1.5593         estimate D2E/DX2                !
 ! D206  D(62,65,66,69)       -178.9185         estimate D2E/DX2                !
 ! D207  D(67,65,66,12)        176.3485         estimate D2E/DX2                !
 ! D208  D(67,65,66,69)         -4.1293         estimate D2E/DX2                !
 ! D209  D(62,65,67,68)        174.18           estimate D2E/DX2                !
 ! D210  D(62,65,67,70)         -4.0138         estimate D2E/DX2                !
 ! D211  D(66,65,67,68)          0.7926         estimate D2E/DX2                !
 ! D212  D(66,65,67,70)       -177.4012         estimate D2E/DX2                !
 ! D213  D(12,66,69,68)       -175.7937         estimate D2E/DX2                !
 ! D214  D(65,66,69,68)          4.8519         estimate D2E/DX2                !
 ! D215  D(65,67,68,69)          2.8507         estimate D2E/DX2                !
 ! D216  D(65,67,68,72)       -177.7738         estimate D2E/DX2                !
 ! D217  D(70,67,68,69)       -178.5889         estimate D2E/DX2                !
 ! D218  D(70,67,68,72)          0.7866         estimate D2E/DX2                !
 ! D219  D(65,67,70,71)       -179.1051         estimate D2E/DX2                !
 ! D220  D(68,67,70,71)          2.7152         estimate D2E/DX2                !
 ! D221  D(67,68,69,66)         -4.2481         estimate D2E/DX2                !
 ! D222  D(72,68,69,66)        176.5598         estimate D2E/DX2                !
 ! D223  D(67,68,72,71)         -5.1591         estimate D2E/DX2                !
 ! D224  D(67,68,72,99)        175.2636         estimate D2E/DX2                !
 ! D225  D(69,68,72,71)        174.0393         estimate D2E/DX2                !
 ! D226  D(69,68,72,99)         -5.538          estimate D2E/DX2                !
 ! D227  D(67,70,71,72)         -5.9121         estimate D2E/DX2                !
 ! D228  D(67,70,71,75)        174.7328         estimate D2E/DX2                !
 ! D229  D(70,71,72,68)          7.092          estimate D2E/DX2                !
 ! D230  D(70,71,72,99)       -173.3384         estimate D2E/DX2                !
 ! D231  D(75,71,72,68)       -173.5757         estimate D2E/DX2                !
 ! D232  D(75,71,72,99)          5.9939         estimate D2E/DX2                !
 ! D233  D(70,71,75,76)        131.979          estimate D2E/DX2                !
 ! D234  D(70,71,75,100)       -45.3788         estimate D2E/DX2                !
 ! D235  D(72,71,75,76)        -47.2941         estimate D2E/DX2                !
 ! D236  D(72,71,75,100)       135.348          estimate D2E/DX2                !
 ! D237  D(62,73,81,82)       -170.5424         estimate D2E/DX2                !
 ! D238  D(84,73,81,82)         10.2302         estimate D2E/DX2                !
 ! D239  D(62,73,84,83)        172.8726         estimate D2E/DX2                !
 ! D240  D(62,73,84,104)        -7.1606         estimate D2E/DX2                !
 ! D241  D(81,73,84,83)         -7.9293         estimate D2E/DX2                !
 ! D242  D(81,73,84,104)       172.0375         estimate D2E/DX2                !
 ! D243  D(62,74,77,78)        171.0683         estimate D2E/DX2                !
 ! D244  D(62,74,77,101)        -8.6401         estimate D2E/DX2                !
 ! D245  D(80,74,77,78)         -8.3017         estimate D2E/DX2                !
 ! D246  D(80,74,77,101)       171.9899         estimate D2E/DX2                !
 ! D247  D(62,74,80,79)       -168.4049         estimate D2E/DX2                !
 ! D248  D(77,74,80,79)         10.9356         estimate D2E/DX2                !
 ! D249  D(71,75,76,85)          3.5294         estimate D2E/DX2                !
 ! D250  D(71,75,76,88)       -172.9553         estimate D2E/DX2                !
 ! D251  D(100,75,76,85)      -179.1075         estimate D2E/DX2                !
 ! D252  D(100,75,76,88)         4.4078         estimate D2E/DX2                !
 ! D253  D(75,76,85,86)       -164.6157         estimate D2E/DX2                !
 ! D254  D(75,76,85,91)         13.0315         estimate D2E/DX2                !
 ! D255  D(88,76,85,86)         12.4525         estimate D2E/DX2                !
 ! D256  D(88,76,85,91)       -169.9002         estimate D2E/DX2                !
 ! D257  D(75,76,88,87)        161.3606         estimate D2E/DX2                !
 ! D258  D(75,76,88,92)        -19.0265         estimate D2E/DX2                !
 ! D259  D(85,76,88,87)        -15.744          estimate D2E/DX2                !
 ! D260  D(85,76,88,92)        163.869          estimate D2E/DX2                !
 ! D261  D(74,77,78,79)          0.3863         estimate D2E/DX2                !
 ! D262  D(74,77,78,102)      -178.9188         estimate D2E/DX2                !
 ! D263  D(101,77,78,79)      -179.9058         estimate D2E/DX2                !
 ! D264  D(101,77,78,102)        0.7891         estimate D2E/DX2                !
 ! D265  D(77,78,79,80)          7.715          estimate D2E/DX2                !
 ! D266  D(77,78,79,90)       -171.5111         estimate D2E/DX2                !
 ! D267  D(102,78,79,80)      -172.995          estimate D2E/DX2                !
 ! D268  D(102,78,79,90)         7.7789         estimate D2E/DX2                !
 ! D269  D(78,79,80,74)        -10.6434         estimate D2E/DX2                !
 ! D270  D(90,79,80,74)        168.5772         estimate D2E/DX2                !
 ! D271  D(78,79,90,108)        88.9991         estimate D2E/DX2                !
 ! D272  D(78,79,90,109)      -150.7176         estimate D2E/DX2                !
 ! D273  D(78,79,90,110)       -30.8568         estimate D2E/DX2                !
 ! D274  D(80,79,90,108)       -90.116          estimate D2E/DX2                !
 ! D275  D(80,79,90,109)        30.1673         estimate D2E/DX2                !
 ! D276  D(80,79,90,110)       150.0281         estimate D2E/DX2                !
 ! D277  D(73,81,82,83)         -9.7793         estimate D2E/DX2                !
 ! D278  D(73,81,82,89)        169.8768         estimate D2E/DX2                !
 ! D279  D(81,82,83,84)          6.8185         estimate D2E/DX2                !
 ! D280  D(81,82,83,103)      -174.1862         estimate D2E/DX2                !
 ! D281  D(89,82,83,84)       -172.8386         estimate D2E/DX2                !
 ! D282  D(89,82,83,103)         6.1568         estimate D2E/DX2                !
 ! D283  D(81,82,89,105)       151.7799         estimate D2E/DX2                !
 ! D284  D(81,82,89,106)       -88.4505         estimate D2E/DX2                !
 ! D285  D(81,82,89,107)        31.5008         estimate D2E/DX2                !
 ! D286  D(83,82,89,105)       -28.6128         estimate D2E/DX2                !
 ! D287  D(83,82,89,106)        91.1568         estimate D2E/DX2                !
 ! D288  D(83,82,89,107)      -148.8919         estimate D2E/DX2                !
 ! D289  D(82,83,84,73)          0.7734         estimate D2E/DX2                !
 ! D290  D(82,83,84,104)      -179.1939         estimate D2E/DX2                !
 ! D291  D(103,83,84,73)      -178.2273         estimate D2E/DX2                !
 ! D292  D(103,83,84,104)        1.8054         estimate D2E/DX2                !
 ! D293  D(76,85,86,87)         -3.9542         estimate D2E/DX2                !
 ! D294  D(76,85,86,93)        175.7464         estimate D2E/DX2                !
 ! D295  D(91,85,86,87)        178.4152         estimate D2E/DX2                !
 ! D296  D(91,85,86,93)         -1.8842         estimate D2E/DX2                !
 ! D297  D(85,86,87,88)         -6.4042         estimate D2E/DX2                !
 ! D298  D(85,86,87,96)        172.871          estimate D2E/DX2                !
 ! D299  D(93,86,87,88)        173.8715         estimate D2E/DX2                !
 ! D300  D(93,86,87,96)         -6.8533         estimate D2E/DX2                !
 ! D301  D(85,86,93,94)       -173.8634         estimate D2E/DX2                !
 ! D302  D(85,86,93,111)         6.8039         estimate D2E/DX2                !
 ! D303  D(87,86,93,94)          5.8065         estimate D2E/DX2                !
 ! D304  D(87,86,93,111)      -173.5262         estimate D2E/DX2                !
 ! D305  D(86,87,88,76)         14.1369         estimate D2E/DX2                !
 ! D306  D(86,87,88,92)       -165.4767         estimate D2E/DX2                !
 ! D307  D(96,87,88,76)       -165.066          estimate D2E/DX2                !
 ! D308  D(96,87,88,92)         15.3204         estimate D2E/DX2                !
 ! D309  D(86,87,96,95)          2.734          estimate D2E/DX2                !
 ! D310  D(86,87,96,114)      -176.1669         estimate D2E/DX2                !
 ! D311  D(88,87,96,95)       -178.1318         estimate D2E/DX2                !
 ! D312  D(88,87,96,114)         2.9674         estimate D2E/DX2                !
 ! D313  D(76,88,92,97)         -5.5999         estimate D2E/DX2                !
 ! D314  D(76,88,92,98)        175.6847         estimate D2E/DX2                !
 ! D315  D(87,88,92,97)        173.9277         estimate D2E/DX2                !
 ! D316  D(87,88,92,98)         -4.7877         estimate D2E/DX2                !
 ! D317  D(86,93,94,95)         -0.7191         estimate D2E/DX2                !
 ! D318  D(86,93,94,112)       179.932          estimate D2E/DX2                !
 ! D319  D(111,93,94,95)       178.6063         estimate D2E/DX2                !
 ! D320  D(111,93,94,112)       -0.7426         estimate D2E/DX2                !
 ! D321  D(93,94,95,96)         -3.2115         estimate D2E/DX2                !
 ! D322  D(93,94,95,113)       175.9515         estimate D2E/DX2                !
 ! D323  D(112,94,95,96)       176.1388         estimate D2E/DX2                !
 ! D324  D(112,94,95,113)       -4.6982         estimate D2E/DX2                !
 ! D325  D(94,95,96,87)          2.2824         estimate D2E/DX2                !
 ! D326  D(94,95,96,114)      -178.8309         estimate D2E/DX2                !
 ! D327  D(113,95,96,87)      -176.8779         estimate D2E/DX2                !
 ! D328  D(113,95,96,114)        2.0088         estimate D2E/DX2                !
 --------------------------------------------------------------------------------
 Trust Radius=3.00D-01 FncErr=5.00D-06 GrdErr=5.00D-06 EigMax=2.50D+02 EigMin=1.00D-04
 Number of steps in this run=    684 maximum allowed number of steps=    684.
 GradGradGradGradGradGradGradGradGradGradGradGradGradGradGradGradGradGrad

 Stoichiometry    C66H34N4O2S8
 Framework group  C1[X(C66H34N4O2S8)]
 Deg. of freedom   336
 Full point group                 C1      NOp   1
 Largest Abelian subgroup         C1      NOp   1
 Largest concise Abelian subgroup C1      NOp   1
                         Standard orientation:                         
 ---------------------------------------------------------------------
 Center     Atomic      Atomic             Coordinates (Angstroms)
 Number     Number       Type             X           Y           Z
 ---------------------------------------------------------------------
      1          6           0        2.748654   -2.030440    1.833542
      2          6           0       11.947161    1.470133    0.014503
      3          6           0       10.817475    2.484565    0.100773
      4          6           0        2.946636   -1.951368    4.252073
      5          7           0       14.851515   -0.780672   -0.940492
      6          1           0        2.721132   -1.579128    5.229881
      7          6           0        3.859662   -2.930601    3.997187
      8          7           0      -10.890837    2.074781    3.244175
      9          1           0        1.519465   -0.649152    2.960300
     10          6           0        2.269545   -1.416608    2.955054
     11          6           0        1.080089   -0.892108    0.253241
     12          6           0       -1.292542   -0.567137    0.377588
     13          6           0       -1.092273    0.880914   -0.067035
     14          6           0        0.121332    1.401053   -0.299107
     15          6           0        1.253199    0.397625   -0.158561
     16          1           0        2.196566   -6.996054   -2.718018
     17          1           0        2.814834   -4.543000   -3.418641
     18          7           0       11.090977   -2.882946   -2.520382
     19          6           0        5.187351    0.873965   -0.761502
     20          6           0        2.723967    0.593933   -0.454140
     21          6           0       11.522850   -1.997618   -1.952106
     22         16           0        6.210592   -1.380863   -0.002351
     23          8           0        8.407012    2.391840   -0.450372
     24          6           0        7.337215   -0.150071   -0.619035
     25         16           0        3.765807    1.912805   -1.059940
     26          6           0        6.719340    1.060152   -0.898586
     27          6           0        2.622439   -4.336208   -2.388462
     28          1           0        5.731440   -2.990624    5.045066
     29          6           0        2.142665   -5.243873   -1.491095
     30          1           0        5.014398   -4.569843    4.807545
     31          6           0        9.523109    1.839260   -0.351430
     32          1           0        4.361215   -3.485823    6.014893
     33          6           0        4.812973   -3.542978    5.045730
     34          1           0        3.238669   -2.104383   -2.288300
     35          6           0        4.853950   -0.342680   -0.324746
     36          6           0        3.363108   -0.520363   -0.171206
     37          6           0       11.000409    3.738749    0.529341
     38          6           0       11.398097    0.187647   -0.650024
     39          1           0        7.202652    1.969176   -1.185344
     40          6           0       13.170879    1.765975    0.484456
     41          6           0       12.395687    4.110588    1.059992
     42          6           0       13.404227    3.182434    1.066533
     43          6           0       13.726978   -0.781417   -1.026971
     44          1           0        1.831185   -7.325292   -1.039384
     45          1           0        0.612349   -6.619853   -2.078025
     46          7           0      -14.654864    0.916983    0.835848
     47          6           0       -0.308704   -1.461350    0.515807
     48          1           0        0.277283    2.418145   -0.585931
     49          1           0       -0.471442   -2.478719    0.802297
     50          6           0        2.435662   -1.627950    0.369587
     51         16           0        3.800398   -3.391264    2.288173
     52         16           0        2.140873   -4.563846    0.142371
     53          6           0        1.664945   -6.655789   -1.856620
     54          6           0       12.170338   -0.825754   -1.175337
     55          6           0        2.502075   -2.926870   -0.448475
     56          6           0        2.853251   -2.950042   -1.753900
     57          1           0       10.204220    4.454928    0.501536
     58          1           0       12.561945    5.108577    1.415539
     59          6           0        8.816178   -0.504008   -0.809455
     60          6           0        9.833223    0.360284   -0.635480
     61          1           0        9.048424   -1.489264   -1.127419
     62          6           0       -2.454536    1.577373   -0.171032
     63          1           0       14.360736    3.429420    1.480811
     64          1           0       13.960283    1.041366    0.478392
     65          6           0       -3.375795    0.444126    0.375035
     66          6           0       -2.758352   -0.712294    0.650332
     67          6           0       -4.867113    0.288065    0.559205
     68          6           0       -5.215269   -0.938160    0.962557
     69         16           0       -3.821237   -2.011636    1.245046
     70         16           0       -6.217316    1.360624    0.316347
     71          6           0       -7.355706    0.110566    0.867960
     72          6           0       -6.747712   -1.099408    1.093771
     73          6           0       -2.771834    1.964654   -1.641278
     74          6           0       -2.545421    2.865368    0.644207
     75          6           0       -8.851492    0.391613    1.044213
     76          6           0       -9.762418   -0.443728    0.536280
     77          6           0       -2.944922    2.884246    1.938690
     78          6           0       -2.739556    4.264403    2.589174
     79          6           0       -2.207204    5.170897    1.716621
     80         16           0       -2.146165    4.497265    0.081987
     81         16           0       -3.827226    3.323728   -2.090644
     82          6           0       -3.870031    2.876678   -3.804087
     83          6           0       -2.959420    1.895352   -4.058451
     84          6           0       -2.291615    1.353355   -2.763757
     85          6           0       -9.511971   -1.769435   -0.187294
     86          6           0      -10.830868   -2.123558   -0.897102
     87          6           0      -11.790135   -1.210236   -0.583192
     88          6           0      -11.281672   -0.226967    0.496159
     89          6           0       -4.811504    3.502870   -4.861519
     90          6           0       -1.715202    6.569992    2.111466
     91          8           0       -8.425949   -2.411809   -0.229574
     92          6           0      -12.021275    0.634723    1.250462
     93          6           0      -11.117274   -3.295182   -1.835394
     94          6           0      -12.334955   -3.333956   -2.449244
     95          6           0      -13.389325   -2.230732   -2.182609
     96          6           0      -13.143183   -1.236414   -1.279454
     97          6           0      -11.358603    1.460134    2.398204
     98          6           0      -13.549008    0.798448    1.009932
     99          1           0       -7.241418   -2.014646    1.330989
    100          1           0       -9.169151    1.280123    1.538383
    101          1           0       -3.350716    2.037127    2.449080
    102          1           0       -2.980153    4.468482    3.610054
    103          1           0       -2.738060    1.524254   -5.037200
    104          1           0       -1.539542    0.586118   -2.766277
    105          1           0       -4.349439    3.455538   -5.826667
    106          1           0       -5.731017    2.952671   -4.877974
    107          1           0       -5.014539    4.527358   -4.615623
    108          1           0       -0.686332    6.512352    2.392543
    109          1           0       -1.826207    7.242331    1.284462
    110          1           0       -2.294754    6.928291    2.938238
    111          1           0      -10.381964   -4.063934   -1.991663
    112          1           0      -12.569653   -4.138463   -3.113314
    113          1           0      -14.308620   -2.242857   -2.719932
    114          1           0      -13.868125   -0.480541   -1.072544
 ---------------------------------------------------------------------
 Rotational constants (GHZ):           0.0435444           0.0072222           0.0067864
 Standard basis: def2SVP (5D, 7F)
 There are  1402 symmetry adapted cartesian basis functions of A   symmetry.
 There are  1322 symmetry adapted basis functions of A   symmetry.
  1322 basis functions,  2334 primitive gaussians,  1402 cartesian basis functions
   301 alpha electrons      301 beta electrons
       nuclear repulsion energy     13697.3909679262 Hartrees.
 NAtoms=  114 NActive=  114 NUniq=  114 SFac= 1.00D+00 NAtFMM=   60 NAOKFM=T Big=T
 Integral buffers will be    131072 words long.
 Raffenetti 2 integral format.
 Two-electron integral symmetry is turned on.
 Nuclear repulsion after empirical dispersion term =    13697.2874783662 Hartrees.
 ------------------------------------------------------------------------------
 Polarizable Continuum Model (PCM)
 =================================
 Model                : PCM.
 Atomic radii         : SMD-Coulomb.
 Polarization charges : Total charges.
 Charge compensation  : None.
 Solution method      : On-the-fly selection.
 Cavity type          : VdW (van der Waals Surface) (Alpha=1.000).
 Cavity algorithm     : GePol (No added spheres)
                        Default sphere list used, NSphG=  114.
                        Lebedev-Laikov grids with approx.  5.0 points / Ang**2.
                        Smoothing algorithm: York/Karplus (Gamma=1.0000).
                        Polarization charges: spherical gaussians, with
                                              point-specific exponents (IZeta= 3).
                        Self-potential: point-specific (ISelfS= 7).
                        Self-field    : sphere-specific E.n sum rule (ISelfD= 2).
 1st derivatives      : Analytical E(r).r(x)/FMM algorithm (CHGder, D1EAlg=3).
                        Cavity 1st derivative terms included.
 Solvent              : Water, Eps=  78.355300 Eps(inf)=   1.777849
 ------------------------------------------------------------------------------
 ------------------------------------------------------------------------------
 Atomic radii for non-electrostatic terms: SMD-CDS.
 ------------------------------------------------------------------------------
 Nuclear repulsion after PCM non-electrostatic terms =    13697.3302267960 Hartrees.
 One-electron integrals computed using PRISM.
   1 Symmetry operations used in ECPInt.
 ECPInt:  NShTT=  179101 NPrTT=  695653 LenC2=   87696 LenP2D=  197163.
 LDataN:  DoStor=T MaxTD1= 4 Len=   56
 NBasis=  1322 RedAO= T EigKep=  2.64D-04  NBF=  1322
 NBsUse=  1322 1.00D-06 EigRej= -1.00D+00 NBFU=  1322
 ExpMin= 1.22D-01 ExpMax= 9.18D+03 ExpMxC= 1.38D+03 IAcc=3 IRadAn=         5 AccDes= 0.00D+00
 Harris functional with IExCor= 4639 and IRadAn=       5 diagonalized for initial guess.
 HarFok:  IExCor= 4639 AccDes= 0.00D+00 IRadAn=         5 IDoV= 1 UseB2=F ITyADJ=14
 ICtDFT=  3500011 ScaDFX=  1.000000  1.000000  1.000000  1.000000
 FoFCou: FMM=F IPFlag=           0 FMFlag=      100000 FMFlg1=        2001
         NFxFlg=           0 DoJE=T BraDBF=F KetDBF=T FulRan=T
         wScrn=  0.000000 ICntrl=       500 IOpCl=  0 I1Cent=   200000004 NGrid=           0
         NMat0=    1 NMatS0=      1 NMatT0=    0 NMatD0=    1 NMtDS0=    0 NMtDT0=    0
 Petite list used in FoFCou.
 Requested convergence on RMS density matrix=1.00D-08 within 128 cycles.
 Requested convergence on MAX density matrix=1.00D-06.
 Requested convergence on             energy=1.00D-06.
 No special actions if energy rises.
 Inv3:  Mode=1 IEnd=   272691468.
 Iteration    1 A*A^-1 deviation from unit magnitude is 3.77D-15 for   7877.
 Iteration    1 A*A^-1 deviation from orthogonality  is 2.87D-15 for   6347     25.
 Iteration    1 A^-1*A deviation from unit magnitude is 3.55D-15 for   7877.
 Iteration    1 A^-1*A deviation from orthogonality  is 4.23D-12 for   5599   5553.
 Error on total polarization charges =  0.06775
 SCF Done:  E(RwB97XD) =  -6085.92224579     A.U. after   15 cycles
            NFock= 15  Conv=0.56D-08     -V/T= 2.0068
 SMD-CDS (non-electrostatic) energy       (kcal/mol) =      26.83
 (included in total energy above)
 Hyperfine terms turned off by default for NAtoms > 100.

 **********************************************************************

            Population analysis using the SCF density.

[...]
 Alpha virt. eigenvalues --    1.25056   1.25252   1.25543   1.25664   1.26059
 Alpha virt. eigenvalues --    1.26540   1.26676   1.27029   1.27773   1.27907
 Alpha virt. eigenvalues --    1.28218   1.28341   1.28799   1.29198   1.29850
 Alpha virt. eigenvalues --    1.30023   1.30274   1.30622   1.30832   1.31421
 Alpha virt. eigenvalues --    1.31623   1.31891   1.32007   1.32195   1.32430
 Alpha virt. eigenvalues --    1.32611   1.32635   1.33150   1.33174   1.33749
 Alpha virt. eigenvalues --    1.34187   1.34337   1.34742   1.35249   1.35474
 Alpha virt. eigenvalues --    1.35557   1.36082   1.36110   1.37195   1.37407
 Alpha virt. eigenvalues --    1.37513   1.37617   1.37894   1.38120   1.38382
 Alpha virt. eigenvalues --    1.38750   1.38819   1.39035   1.39293   1.39767
 Alpha virt. eigenvalues --    1.39975   1.40143   1.40415   1.41152   1.41312
 Alpha virt. eigenvalues --    1.41525   1.41892   1.42032   1.42250   1.42839
 Alpha virt. eigenvalues --    1.42871   1.43169   1.43632   1.43987   1.44590
 Alpha virt. eigenvalues --    1.45057   1.45647   1.45994   1.47232   1.47551
 Alpha virt. eigenvalues --    1.47946   1.48214   1.48432   1.49447   1.49874
 Alpha virt. eigenvalues --    1.50489   1.50525   1.51100   1.52897   1.53424
 Alpha virt. eigenvalues --    1.53582   1.53979   1.54113   1.54273   1.54518
 Alpha virt. eigenvalues --    1.54868   1.55359   1.55905   1.56589   1.56815
 Alpha virt. eigenvalues --    1.56844   1.58044   1.58507   1.58608   1.58772
 Alpha virt. eigenvalues --    1.58943   1.59956   1.60271   1.61116   1.61318
 Alpha virt. eigenvalues --    1.62310   1.62315   1.62323   1.62328   1.63903
 Alpha virt. eigenvalues --    1.64236   1.64287   1.65022   1.67364   1.67408
 Alpha virt. eigenvalues --    1.67984   1.68021   1.69385   1.69560   1.70030
 Alpha virt. eigenvalues --    1.70213   1.71375   1.71687   1.71896   1.71991
 Alpha virt. eigenvalues --    1.72568   1.72589   1.72817   1.72948   1.73744
 Alpha virt. eigenvalues --    1.73973   1.74151   1.74968   1.75541   1.75698
 Alpha virt. eigenvalues --    1.76248   1.76353   1.76691   1.76782   1.77617
 Alpha virt. eigenvalues --    1.78213   1.78460   1.78611   1.78736   1.78762
 Alpha virt. eigenvalues --    1.78922   1.79012   1.79087   1.79599   1.79726
 Alpha virt. eigenvalues --    1.80480   1.80648   1.80926   1.81067   1.81220
 Alpha virt. eigenvalues --    1.81249   1.81397   1.81462   1.81876   1.82026
 Alpha virt. eigenvalues --    1.82092   1.82152   1.82524   1.82745   1.83117
 Alpha virt. eigenvalues --    1.83319   1.83741   1.84331   1.84489   1.84559
 Alpha virt. eigenvalues --    1.85011   1.85261   1.85519   1.85899   1.86101
 Alpha virt. eigenvalues --    1.86174   1.86326   1.86536   1.86603   1.86711
 Alpha virt. eigenvalues --    1.86926   1.87221   1.87280   1.87449   1.87659
 Alpha virt. eigenvalues --    1.88259   1.88372   1.88539   1.88592   1.88608
 Alpha virt. eigenvalues --    1.89001   1.89172   1.89603   1.89677   1.89752
 Alpha virt. eigenvalues --    1.89827   1.90242   1.90481   1.90829   1.91215
 Alpha virt. eigenvalues --    1.91825   1.92228   1.93009   1.93157   1.93599
 Alpha virt. eigenvalues --    1.93883   1.94249   1.94481   1.95350   1.95613
 Alpha virt. eigenvalues --    1.95757   1.95950   1.96569   1.97297   1.97430
 Alpha virt. eigenvalues --    1.97668   1.97905   1.98446   1.98686   1.99069
 Alpha virt. eigenvalues --    1.99259   1.99390   1.99580   2.00187   2.00723
 Alpha virt. eigenvalues --    2.01066   2.01504   2.01679   2.01803   2.01917
 Alpha virt. eigenvalues --    2.02567   2.02713   2.02734   2.03239   2.03333
 Alpha virt. eigenvalues --    2.03575   2.04112   2.04343   2.04795   2.04905
 Alpha virt. eigenvalues --    2.05241   2.05405   2.05557   2.05726   2.06587
 Alpha virt. eigenvalues --    2.06623   2.06879   2.07158   2.07325   2.07554
 Alpha virt. eigenvalues --    2.07903   2.08026   2.08265   2.08935   2.09160
 Alpha virt. eigenvalues --    2.10406   2.10763   2.10870   2.11138   2.11556
 Alpha virt. eigenvalues --    2.12100   2.12529   2.12809   2.13014   2.13566
 Alpha virt. eigenvalues --    2.13898   2.14152   2.14316   2.15068   2.17224
 Alpha virt. eigenvalues --    2.17623   2.17786   2.18032   2.18775   2.18806
 Alpha virt. eigenvalues --    2.19122   2.19299   2.19459   2.19649   2.20108
 Alpha virt. eigenvalues --    2.20308   2.20429   2.20816   2.20929   2.21083
 Alpha virt. eigenvalues --    2.21449   2.21856   2.22220   2.22570   2.22838
 Alpha virt. eigenvalues --    2.22921   2.23029   2.23685   2.23841   2.23940
 Alpha virt. eigenvalues --    2.24168   2.24270   2.24935   2.25029   2.25795
 Alpha virt. eigenvalues --    2.26210   2.26862   2.27168   2.27340   2.27413
 Alpha virt. eigenvalues --    2.27946   2.28321   2.28604   2.28689   2.29085
 Alpha virt. eigenvalues --    2.29505   2.30193   2.30232   2.30694   2.30848
 Alpha virt. eigenvalues --    2.30907   2.32204   2.32286   2.33086   2.33123
 Alpha virt. eigenvalues --    2.33181   2.33380   2.33697   2.33973   2.34035
 Alpha virt. eigenvalues --    2.34072   2.34245   2.34634   2.34870   2.34977
 Alpha virt. eigenvalues --    2.35179   2.35259   2.36287   2.36504   2.37351
 Alpha virt. eigenvalues --    2.37557   2.38728   2.38900   2.39406   2.39455
 Alpha virt. eigenvalues --    2.39815   2.40220   2.40260   2.40530   2.41010
 Alpha virt. eigenvalues --    2.41334   2.41436   2.41624   2.41856   2.42220
 Alpha virt. eigenvalues --    2.42925   2.43186   2.43822   2.44954   2.45676
 Alpha virt. eigenvalues --    2.46293   2.46646   2.47290   2.47375   2.48096
 Alpha virt. eigenvalues --    2.49238   2.49301   2.49868   2.50745   2.51021
 Alpha virt. eigenvalues --    2.51056   2.51193   2.51210   2.51459   2.51872
 Alpha virt. eigenvalues --    2.52037   2.52377   2.53488   2.53527   2.54279
 Alpha virt. eigenvalues --    2.54644   2.54847   2.55710   2.56679   2.57163
 Alpha virt. eigenvalues --    2.57546   2.58376   2.58801   2.59110   2.59439
 Alpha virt. eigenvalues --    2.59891   2.60364   2.61130   2.61386   2.61586
 Alpha virt. eigenvalues --    2.61730   2.62335   2.62995   2.65113   2.65248
 Alpha virt. eigenvalues --    2.65350   2.66426   2.67065   2.67105   2.67800
 Alpha virt. eigenvalues --    2.67962   2.68466   2.68852   2.69080   2.69649
 Alpha virt. eigenvalues --    2.70186   2.70446   2.71825   2.72381   2.72846
 Alpha virt. eigenvalues --    2.73193   2.73351   2.73802   2.74499   2.74630
 Alpha virt. eigenvalues --    2.75723   2.76250   2.76846   2.77085   2.77426
 Alpha virt. eigenvalues --    2.78054   2.78156   2.78652   2.78987   2.79966
 Alpha virt. eigenvalues --    2.80626   2.81259   2.81671   2.81743   2.81760
 Alpha virt. eigenvalues --    2.81881   2.81957   2.82007   2.82218   2.82423
 Alpha virt. eigenvalues --    2.82709   2.83060   2.83188   2.83621   2.83724
 Alpha virt. eigenvalues --    2.84614   2.85800   2.86497   2.87213   2.87337
 Alpha virt. eigenvalues --    2.88367   2.89712   2.91137   2.92534   2.92908
 Alpha virt. eigenvalues --    2.93051   2.93394   2.94147   2.95005   2.95052
 Alpha virt. eigenvalues --    2.97386   2.97582   2.99563   3.00969   3.01289
 Alpha virt. eigenvalues --    3.01300   3.01343   3.01364   3.01399   3.01413
 Alpha virt. eigenvalues --    3.01747   3.02196   3.02429   3.02774   3.03756
 Alpha virt. eigenvalues --    3.04100   3.04747   3.04769   3.04852   3.04947
 Alpha virt. eigenvalues --    3.06759   3.08336   3.09401   3.09488   3.09739
 Alpha virt. eigenvalues --    3.09742   3.11890   3.12755   3.15531   3.16150
 Alpha virt. eigenvalues --    3.16506   3.16577   3.17282   3.17354   3.18998
 Alpha virt. eigenvalues --    3.20460   3.21868   3.22324   3.23052   3.23369
 Alpha virt. eigenvalues --    3.23760   3.24630   3.27420   3.27754   3.32458
 Alpha virt. eigenvalues --    3.32641   3.33976   3.36030   3.36229   3.39843
 Alpha virt. eigenvalues --    3.40384   3.44442   3.44503   3.46428   3.46609
 Alpha virt. eigenvalues --    3.54187   3.54203   3.55938   3.56020   3.62856
 Alpha virt. eigenvalues --    3.63127   3.63146   3.72691   3.72890   3.74886
 Alpha virt. eigenvalues --    3.75237
          Condensed to atoms (all electrons):
 Mulliken charges:
               1
     1  C   -0.123782
     2  C    0.026638
     3  C   -0.055734
     4  C   -0.038618
     5  N    0.014216
     6  H    0.044220
     7  C   -0.244283
     8  N    0.020801
     9  H    0.051380
    10  C   -0.025008
    11  C   -0.000683
    12  C    0.019049
    13  C   -0.000923
    14  C   -0.077428
    15  C    0.018601
    16  H    0.063060
    17  H    0.044000
    18  N    0.019769
    19  C   -0.082716
    20  C   -0.047797
    21  C   -0.089673
    22  S    0.169361
    23  O   -0.249831
    24  C   -0.163611
    25  S    0.186001
    26  C   -0.002648
    27  C   -0.034973
    28  H    0.071350
    29  C   -0.244645
    30  H    0.072006
    31  C    0.252583
    32  H    0.062938
    33  C    0.041481
    34  H    0.051475
    35  C   -0.033454
    36  C   -0.041630
    37  C   -0.046754
    38  C    0.275396
    39  H    0.061579
    40  C   -0.049874
    41  C   -0.007972
    42  C   -0.008718
    43  C   -0.071948
    44  H    0.071991
    45  H    0.071380
    46  N    0.014383
    47  C   -0.077822
    48  H    0.025419
    49  H    0.025273
    50  C    0.030345
    51  S    0.109179
    52  S    0.112321
    53  C    0.040827
    54  C   -0.343331
    55  C   -0.125672
    56  C   -0.029717
    57  H    0.051490
    58  H    0.067570
    59  C    0.072617
    60  C   -0.116910
    61  H    0.064428
    62  C    0.030314
    63  H    0.065850
    64  H    0.047131
    65  C   -0.040311
    66  C   -0.049285
    67  C   -0.037154
    68  C   -0.084064
    69  S    0.185749
    70  S    0.171784
    71  C   -0.164990
    72  C    0.001650
    73  C   -0.123804
    74  C   -0.125712
    75  C    0.067235
    76  C   -0.116743
    77  C   -0.029888
    78  C   -0.034961
    79  C   -0.244670
    80  S    0.112322
    81  S    0.109197
    82  C   -0.244294
    83  C   -0.038637
    84  C   -0.025026
    85  C    0.251751
    86  C   -0.055906
    87  C    0.027268
    88  C    0.264798
    89  C    0.041478
    90  C    0.040808
    91  O   -0.249848
    92  C   -0.336805
    93  C   -0.047106
    94  C   -0.008423
    95  C   -0.008524
    96  C   -0.049409
    97  C   -0.092982
    98  C   -0.071463
    99  H    0.063425
   100  H    0.074634
   101  H    0.051403
   102  H    0.044002
   103  H    0.044197
   104  H    0.051311
   105  H    0.062940
   106  H    0.071329
   107  H    0.071988
   108  H    0.071324
   109  H    0.072020
   110  H    0.063064
   111  H    0.051913
   112  H    0.067677
   113  H    0.066091
   114  H    0.048380
 Sum of Mulliken charges =  -0.00000
 Mulliken charges with hydrogens summed into heavy atoms:
               1
     1  C   -0.123782
     2  C    0.026638
     3  C   -0.055734
     4  C    0.005602
     5  N    0.014216
     7  C   -0.244283
     8  N    0.020801
    10  C    0.026372
    11  C   -0.000683
    12  C    0.019049
    13  C   -0.000923
    14  C   -0.052008
    15  C    0.018601
    18  N    0.019769
    19  C   -0.082716
    20  C   -0.047797
    21  C   -0.089673
    22  S    0.169361
    23  O   -0.249831
    24  C   -0.163611
    25  S    0.186001
    26  C    0.058930
    27  C    0.009027
    29  C   -0.244645
    31  C    0.252583
    33  C    0.247775
    35  C   -0.033454
    36  C   -0.041630
    37  C    0.004735
    38  C    0.275396
    40  C   -0.002743
    41  C    0.059598
    42  C    0.057132
    43  C   -0.071948
    46  N    0.014383
    47  C   -0.052549
    50  C    0.030345
    51  S    0.109179
    52  S    0.112321
    53  C    0.247257
    54  C   -0.343331
    55  C   -0.125672
    56  C    0.021758
    59  C    0.137045
    60  C   -0.116910
    62  C    0.030314
    65  C   -0.040311
    66  C   -0.049285
    67  C   -0.037154
    68  C   -0.084064
    69  S    0.185749
    70  S    0.171784
    71  C   -0.164990
    72  C    0.065075
    73  C   -0.123804
    74  C   -0.125712
    75  C    0.141870
    76  C   -0.116743
    77  C    0.021515
    78  C    0.009041
    79  C   -0.244670
    80  S    0.112322
    81  S    0.109197
    82  C   -0.244294
    83  C    0.005559
    84  C    0.026285
    85  C    0.251751
    86  C   -0.055906
    87  C    0.027268
    88  C    0.264798
    89  C    0.247734
    90  C    0.247216
    91  O   -0.249848
    92  C   -0.336805
    93  C    0.004807
    94  C    0.059254
    95  C    0.057568
    96  C   -0.001029
    97  C   -0.092982
    98  C   -0.071463
 Electronic spatial extent (au):  <R**2>=         142894.1423
 Charge=              0.0000 electrons
 Dipole moment (field-independent basis, Debye):
    X=             -0.1665    Y=              0.7651    Z=             -1.3040  Tot=              1.5210
 Quadrupole moment (field-independent basis, Debye-Ang):
   XX=           -550.8666   YY=           -485.1901   ZZ=           -484.1610
   XY=            140.4773   XZ=             83.8485   YZ=            -11.5578
 Traceless Quadrupole moment (field-independent basis, Debye-Ang):
   XX=            -44.1273   YY=             21.5491   ZZ=             22.5782
   XY=            140.4773   XZ=             83.8485   YZ=            -11.5578
 Octapole moment (field-independent basis, Debye-Ang**2):
  XXX=              1.4896  YYY=             28.8495  ZZZ=            -13.0748  XYY=            -24.5753
  XXY=            114.7232  XXZ=           -240.6608  XZZ=             28.8346  YZZ=            -18.7947
  YYZ=            -12.9104  XYZ=              4.6194
 Hexadecapole moment (field-independent basis, Debye-Ang**3):
 XXXX=        -179863.5516 YYYY=         -19278.3185 ZZZZ=          -7743.6651 XXXY=          29807.2880
 XXXZ=          14083.7077 YYYX=           1825.8101 YYYZ=            412.6263 ZZZX=            640.0111
 ZZZY=           -428.9577 XXYY=         -31810.2555 XXZZ=         -31251.9863 YYZZ=          -4300.4471
 XXYZ=          -1039.6207 YYXZ=           1181.1888 ZZXY=           -268.3678
 N-N= 1.390067942783D+04 E-N=-4.209194553581D+04  KE= 6.048570545898D+03
 1\1\GINC-NODE013\FOpt\RwB97XD\def2SVP\C66H34N4O2S8\PSYCHE\14-Feb-2020\
 0\\# wB97XD/Def2SVP # Opt # SCRF=(SMD,Solvent=Water) # Integral=(Grid=
 UltraFineGrid)\\Modified structure D2\\0,1\C,0.37410047,-3.5990433628,
 0.8720827185\C,-8.559512892,-8.3630146936,1.9029829009\C,-8.8126720577
 ,-7.3917627013,0.9239360293\C,1.61840708,-4.8977504745,-0.6137412627\N
 ,-8.0515895551,-10.6062623716,4.952798523\H,2.2109483373,-5.1065509283
 ,-1.5058634138\C,1.3437876116,-5.8507029332,0.330000627\N,5.5016996795
 ,7.1906490358,-5.5036811892\H,1.1738572189,-2.7424296242,-0.9508671353
 \C,1.0651483859,-3.6171035132,-0.3089651812\C,-0.13499717,-1.133489067
 7,0.7782618307\C,1.1062057227,0.7606831564,0.0613534121\C,-0.027303291
 3,1.2663186385,-0.6103500947\C,-1.2316165276,0.5804957782,-0.592099234
 \C,-1.2697835497,-0.6258474611,0.1102421742\H,0.8898281455,-1.81791046
 35,7.3985509677\H,-1.360380464,-1.7392692186,6.1055836549\N,-5.0914969
 033,-7.627100479,5.4194427597\C,-4.1636704005,-3.173143166,0.733924074
 8\C,-2.3469747976,-1.5782379601,0.3291772552\C,-5.9169813066,-8.003926
 4317,4.6961742908\S,-3.1463112723,-5.0209701663,2.212466628\O,-7.76837
 47603,-5.3289388745,0.2943636879\C,-4.84818938,-5.1281537337,1.7542514
 469\S,-4.0104417651,-1.6684734661,-0.1368296447\C,-5.2336346041,-4.055
 8843266,0.9609735584\C,-0.7422597521,-1.9419925709,5.2296440572\H,0.89
 7502421,-7.9623330842,0.3820297819\C,0.6161494569,-2.0947271491,5.3031
 365822\H,2.3856813354,-7.5094507958,1.2393241035\C,-7.787733994,-6.324
 2653707,0.993590267\H,2.3529130764,-7.5132775352,-0.5413802038\C,1.765
 0248879,-7.285117511,0.3581397862\H,-2.3171729179,-1.9836018657,3.6565
 508446\C,-2.9578062364,-3.5559003868,1.3404612531\C,-1.9153138564,-2.6
 294120922,1.0991752063\C,-9.8789274117,-7.4839367687,0.0411075141\C,-7
 .3795014829,-7.9409472981,2.6931771781\H,-6.2468975843,-3.9430741477,0
 .5839858245\C,-9.3920398076,-9.4808419258,1.9914127119\C,-10.710935982
 5,-8.5993020343,0.1381028711\C,-10.4611535233,-9.5841428752,1.09885431
 18\C,-7.5900522219,-9.6734538584,4.4403708666\H,2.0292742925,-2.979994
 573,6.6748536439\H,2.2567794732,-1.2378100458,6.4150195053\N,8.2010101
 567,10.4244938735,-4.9643761317\C,1.0684190273,-0.4461442901,0.7626285
 44\H,-2.1176243905,0.9656018645,-1.1007273273\H,1.9546349416,-0.831612
 6283,1.2706053811\C,-0.4495060916,-2.4703793963,1.4707743884\S,0.40328
 0139,-5.1692331145,1.6182598739\S,1.2724534283,-2.4258951206,3.7320207
 348\C,1.4982055438,-2.0300211255,6.5088069697\C,-6.9662075085,-8.51877
 69455,3.8685183466\C,-0.2913736668,-2.3484961993,2.976709688\C,-1.2601
 00134,-2.0833174012,3.9065423473\H,-10.0493051801,-6.7044685484,-0.703
 8975723\H,-11.5587242558,-8.7093905418,-0.5407275558\C,-5.5642749601,-
 6.2518606262,2.2791323084\C,-6.8186118504,-6.7446777709,2.0429954183\H
 ,-4.9612362034,-6.8346136126,2.9801973435\C,0.2909438889,2.597881918,-
 1.3117500261\H,-11.114499572,-10.4568503398,1.1553511578\H,-9.22973335
 85,-10.2736757946,2.7186438215\C,1.7566152503,2.7570247619,-0.93896744
 95\C,2.1837738991,1.712410881,-0.1577508472\C,2.8022961272,3.678727070
 8,-1.1863056364\C,4.0025412941,3.3036322844,-0.5650690952\S,3.84384615
 45,1.8077178838,0.3188355548\S,3.0005761845,5.1287755807,-2.0832049952
 \C,4.6955415258,5.2440630601,-1.606201936\C,5.0739135987,4.1856291627,
 -0.7927671193\C,-0.5307134215,3.7326677795,-0.7220459216\C,0.134029787
 2,2.4653126113,-2.8168116944\C,5.4342321507,6.3440426878,-2.1517749105
 \C,6.6580708196,6.8660869346,-1.8365217056\C,1.1028544808,2.1887863532
 ,-3.7432388415\C,0.5860942925,2.0389981152,-5.0658293463\C,-0.77159383
 65,2.1966892668,-5.1422428103\S,-1.428518654,2.5430820487,-3.574667954
 2\S,-0.5531494946,5.2985386728,-1.4774176043\C,-1.4959570201,5.9900713
 045,-0.1962279731\C,-1.7760647614,5.0434608259,0.7522857443\C,-1.22536
 48385,3.7595677395,0.4567352068\C,7.4949079332,6.5804736701,-0.6370563
 542\C,8.4479185618,7.7110300142,-0.5240366259\C,8.295685962,8.57727581
 56,-1.6168035554\C,7.2704885869,8.0132656953,-2.5231031843\C,-1.913102
 8965,7.4254595068,-0.2341632891\C,-1.6523933311,2.1262357672,-6.348507
 9894\O,7.4234144343,5.6440592625,0.1353363815\C,7.0331594775,8.4197691
 862,-3.8122690155\C,9.3673859775,7.9465364638,0.4878494473\C,10.147488
 4633,9.1001658807,0.4042928464\C,9.9933397369,9.9812345228,-0.67064744
 79\C,9.0744961328,9.7334594224,-1.6928252147\C,6.1687528268,7.72587497
 64,-4.7195435738\C,7.695322802,9.5331848604,-4.4207805233\H,6.08292736
 99,4.0755976143,-0.4040886699\H,4.8868419908,6.8732951121,-2.937406428
 8\H,2.159171325,2.0866341413,-3.4910185154\H,1.204443891,1.8266888126,
 -5.9393350924\H,-2.3706943411,5.2591436626,1.6413764012\H,-1.338388317
 4,2.8889365745,1.1033588961\H,-2.5028326328,7.6606661938,0.6623341729\
 H,-1.0436197307,8.1000917958,-0.2597343207\H,-2.5306834248,7.646167787
 9,-1.1184195604\H,-2.4159462207,1.3396021055,-6.248469751\H,-2.1773936
 452,3.0778843825,-6.5240238018\H,-1.0441496324,1.9022473769,-7.2354300
 35\H,9.4656055758,7.2476722251,1.3206488271\H,10.8790772448,9.32187322
 5,1.1835353682\H,10.6030721036,10.8856176146,-0.7149347112\H,8.9783079
 078,10.4481647327,-2.5080390363\\Version=ES64L-G16RevA.03\State=1-A\HF
 =-6086.3039932\RMSD=7.671e-09\RMSF=1.922e-06\Dipole=-0.3658027,0.44882
 18,0.1511537\Quadrupole=54.9888716,-10.6955954,-44.2932761,2.0782871,6
 8.2006875,92.0312574\PG=C01 [X(C66H34N4O2S8)]\\@


 THERE ARE PEOPLE SO ADDICTED TO EXAGERATING THEY
 CAN'T TELL THE TRUTH WITHOUT LYING. -- FORTUNE COOKIE
 Job cpu time:       7 days  0 hours  4 minutes 30.6 seconds.
 Elapsed time:       0 days  4 hours 29 minutes 54.0 seconds.
 File lengths (MBytes):  RWF=   2561 Int=      0 D2E=      0 Chk=    141 Scr=      1
 Normal termination of Gaussian 16 at Fri Feb 14 21:47:56 2020.
