 Entering Gaussian System, Link 0=g16
 Initial command:
 /opt/apps/chemistry/Gaussian/g16/l1.exe "/tmp/Gau-77020.inp" -scrdir="/tmp/"
 Entering Link 1 = /opt/apps/chemistry/Gaussian/g16/l1.exe PID=     77021.
  
 Copyright (c) 1988,1990,1992,1993,1995,1998,2003,2009,2016,
            Gaussian, Inc.  All Rights Reserved.
  
 This is part of the Gaussian(R) 16 program.  It is based on
 the Gaussian(R) 09 system (copyright 2009, Gaussian, Inc.),
 the Gaussian(R) 03 system (copyright 2003, Gaussian, Inc.),
 the Gaussian(R) 98 system (copyright 1998, Gaussian, Inc.),
 the Gaussian(R) 94 system (copyright 1995, Gaussian, Inc.),
 the Gaussian 92(TM) system (copyright 1992, Gaussian, Inc.),
 the Gaussian 90(TM) system (copyright 1990, Gaussian, Inc.),
 the Gaussian 88(TM) system (copyright 1988, Gaussian, Inc.),
 the Gaussian 86(TM) system (copyright 1986, Carnegie Mellon
 University), and the Gaussian 82(TM) system (copyright 1983,
 Carnegie Mellon University). Gaussian is a federally registered
 trademark of Gaussian, Inc.
  
 This software contains proprietary and confidential information,
 including trade secrets, belonging to Gaussian, Inc.
  
 This software is provided under written license and may be
 used, copied, transmitted, or stored only in accord with that
 written license.
  
 The following legend is applicable only to US Government
 contracts under FAR:
  
                    RESTRICTED RIGHTS LEGEND
  
 Use, reproduction and disclosure by the US Government is
 subject to restrictions as set forth in subparagraphs (a)
 and (c) of the Commercial Computer Software - Restricted
 Rights clause in FAR 52.227-19.
  
 Gaussian, Inc.
 340 Quinnipiac St., Bldg. 40, Wallingford CT 06492
  
  
 ---------------------------------------------------------------
 Warning -- This program may not be used in any manner that
 competes with the business of Gaussian, Inc. or will provide
 assistance to any competitor of Gaussian, Inc.  The licensee
 of this program is prohibited from giving any competitor of
 Gaussian, Inc. access to this program.  By using this program,
 the user acknowledges that Gaussian, Inc. is engaged in the
 business of creating and licensing software in the field of
 computational chemistry and represents and warrants to the
 licensee that it is not a competitor of Gaussian, Inc. and that
 it will not use this program in any manner prohibited above.
 ---------------------------------------------------------------
  

 Cite this work as:
 Gaussian 16, Revision A.03,
 M. J. Frisch, G. W. Trucks, H. B. Schlegel, G. E. Scuseria, 
 M. A. Robb, J. R. Cheeseman, G. Scalmani, V. Barone, 
 G. A. Petersson, H. Nakatsuji, X. Li, M. Caricato, A. V. Marenich, 
 J. Bloino, B. G. Janesko, R. Gomperts, B. Mennucci, H. P. Hratchian, 
 J. V. Ortiz, A. F. Izmaylov, J. L. Sonnenberg, D. Williams-Young, 
 F. Ding, F. Lipparini, F. Egidi, J. Goings, B. Peng, A. Petrone, 
 T. Henderson, D. Ranasinghe, V. G. Zakrzewski, J. Gao, N. Rega, 
 G. Zheng, W. Liang, M. Hada, M. Ehara, K. Toyota, R. Fukuda, 
 J. Hasegawa, M. Ishida, T. Nakajima, Y. Honda, O. Kitao, H. Nakai, 
 T. Vreven, K. Throssell, J. A. Montgomery, Jr., J. E. Peralta, 
 F. Ogliaro, M. J. Bearpark, J. J. Heyd, E. N. Brothers, K. N. Kudin, 
 V. N. Staroverov, T. A. Keith, R. Kobayashi, J. Normand, 
 K. Raghavachari, A. P. Rendell, J. C. Burant, S. S. Iyengar, 
 J. Tomasi, M. Cossi, J. M. Millam, M. Klene, C. Adamo, R. Cammi, 
 J. W. Ochterski, R. L. Martin, K. Morokuma, O. Farkas, 
 J. B. Foresman, and D. J. Fox, Gaussian, Inc., Wallingford CT, 2016.
 
 ******************************************
 Gaussian 16:  ES64L-G16RevA.03 25-Dec-2016
                 7-Feb-2020 
 ******************************************
 %mem=360GB
 %nprocshared=40
 Will use up to   40 processors via shared memory.
 %Chk=/users/psyche/volatile/gaussian/nanohybrid/chk/A6.chk
 ----------------------------------------------------------------------
 # wB97XD/Def2SVP Opt # SCRF=(SMD,Solvent=Water) # Integral=(Grid=Ultra
 FineGrid)
 ----------------------------------------------------------------------
 1/18=20,19=15,26=6,38=1/1,3;
 2/9=110,12=2,17=6,18=5,40=1/2;
 3/5=43,7=101,11=2,25=1,30=1,70=32201,71=1,72=1,74=-58,75=-5/1,2,3;
 4//1;
 5/5=2,38=5,53=1/2;
 6/7=2,8=2,9=2,10=2,28=1/1;
 7//1,2,3,16;
 1/18=20,19=15,26=6/3(2);
 2/9=110/2;
 99//99;
 2/9=110/2;
 3/5=43,7=101,11=2,25=1,30=1,70=32205,71=1,72=1,74=-58,75=-5/1,2,3;
 4/5=5,16=3,69=1/1;
 5/5=2,38=5,53=1/2;
 7//1,2,3,16;
 1/18=20,19=15,26=6/3(-5);
 2/9=110/2;
 6/7=2,8=2,9=2,10=2,19=2,28=1/1;
 99/9=1/99;
 ------------------------------
 Geometry optimisation, Mol: A6
 ------------------------------
 Symbolic Z-matrix:
 Charge =  0 Multiplicity = 1
 H                    -6.56253   6.11725   2.32249 
 H                    -5.71962   7.54853   1.74034 
 C                    -3.39057   6.18187   2.42 
 H                    -6.27066   6.32205   0.59715 
 O                     1.90459  -5.85584  -5.95761 
 H                     1.55937  -0.48976  -1.75743 
 C                     5.59986  -7.8273   -3.40876 
 H                     0.2583    2.36149   0.55999 
 H                    -0.22486   0.83213   1.34329 
 H                     0.6699    0.9264   -1.21333 
 C                    -5.83586   6.47501   1.58653 
 F                     6.78701  -9.16299  -8.65423 
 C                    -5.81346   10.1973   7.88922 
 C                    -4.81951   10.3737   6.91817 
 N                    -2.59091   12.6258   5.42875 
 H                    -7.22512   7.24075   6.84834 
 H                    -4.16642   11.239    6.98788 
 H                     1.29707  -0.25094  -0.02727 
 C                     4.69115  -8.04486  -8.66113 
 F                    -5.94221   11.1028   8.86975 
 C                    -2.97167   4.00248   1.18088 
 C                    -4.53031   5.73719   1.71686 
 C                     3.67879  -7.36108  -7.97873 
 H                     6.8716   -8.72743  -6.10138 
 H                     2.80652  -6.97657  -8.50379 
 C                    -3.76671   9.30497   4.74518 
 C                    -5.2044    7.37956   4.76346 
 S                    -1.92054  -4.11462  -2.70127 
 C                     4.95225  -7.67297  -5.88511 
 C                     3.82827  -7.18476  -6.59223 
 C                    -2.91884   10.3099   4.29431 
 C                     5.97436  -8.35162  -6.585 
 O                    -5.72194   6.29371   4.52521 
 S                     2.22905  -3.38929  -2.10604 
 C                     5.82712  -8.52751  -7.96682 
 C                    -2.75999   11.5869   4.94882 
 F                     4.59694  -8.24173  -9.98499 
 C                    -1.72486  -0.44218  -1.01553 
 C                    -2.59637  -1.43866  -1.55524 
 S                    -5.30828   3.44503   0.0498 
 C                     0.83458  -0.13639  -1.01958 
 C                    -2.13178   10.2117   3.08623 
 S                    -1.99066   5.08796   2.14583 
 C                    -3.68253   1.06684  -0.74567 
 C                    -2.30859   0.78126  -0.47307 
 C                    -5.56952   8.28596   5.89546 
 C                    -4.70046   9.40242   5.8996 
 N                    -1.49812   10.2071   2.11801 
 C                    -6.56763   8.1077    6.869 
 C                    -4.02503  -1.21929  -1.74672 
 C                    -4.57481   0.11223  -1.39283 
 C                     6.73999  -8.69151  -3.60254 
 F                    -7.6223    8.96018   8.81959 
 C                    -0.14736  -4.2871   -2.68154 
 N                    -5.84747   0.3471   -1.62314 
 H                     0.0012   -6.56189  -4.74529 
 N                    -4.83445  -2.11357  -2.26954 
 C                    -1.77411  -2.52115  -1.95823 
 H                     0.93035  -7.43868  -3.53452 
 H                    -0.71584  -6.91382  -3.17496 
 C                    -3.15554   7.36258   3.20841 
 C                    -4.01932   8.01059   4.08224 
 C                     2.07839  -4.97065  -2.94736 
 C                     0.72454  -5.31735  -3.14255 
 C                    -3.96185   2.32238  -0.14917 
 C                    -2.79486   2.75722   0.50123 
 S                    -6.54906  -1.26585  -2.38327 
 C                    -0.43931  -2.16309  -1.70526 
 C                     0.21247  -6.62941  -3.67363 
 C                    -4.27638   4.50791   1.03965 
 C                     5.33651  -7.57242  -2.01088 
 C                     0.49046  -3.16762  -2.11789 
 N                    -0.40518  -0.88916  -1.14646 
 C                     2.92844  -6.45479  -5.64683 
 C                     3.29605  -5.68753  -3.21963 
 C                     3.5995   -6.50581  -4.30028 
 H                     4.0983   -5.50148  -2.49791 
 N                    -1.79047   1.81127   0.32029 
 C                     4.81329  -7.33366  -4.44294 
 C                    -0.55496   1.84255   1.09003 
 C                    -6.68499   9.08132   7.86722 
 H                    -0.71864   2.37341   2.03134 
 N                     7.66135  -9.38499  -3.69498 
 N                     5.16465  -7.42852  -0.87566 
 H                    -2.13417   7.75138   3.14207 
 

 GradGradGradGradGradGradGradGradGradGradGradGradGradGradGradGradGradGrad
 Berny optimization.
 Initialization pass.
                           ----------------------------
                           !    Initial Parameters    !
                           ! (Angstroms and Degrees)  !
 --------------------------                            --------------------------
 ! Name  Definition              Value          Derivative Info.                !
 --------------------------------------------------------------------------------
 ! R1    R(1,11)                 1.0944         estimate D2E/DX2                !
 ! R2    R(2,11)                 1.0907         estimate D2E/DX2                !
 ! R3    R(3,22)                 1.4111         estimate D2E/DX2                !
 ! R4    R(3,43)                 1.7977         estimate D2E/DX2                !
 ! R5    R(3,61)                 1.4391         estimate D2E/DX2                !
 ! R6    R(4,11)                 1.0915         estimate D2E/DX2                !
 ! R7    R(5,74)                 1.2262         estimate D2E/DX2                !
 ! R8    R(6,41)                 1.093          estimate D2E/DX2                !
 ! R9    R(7,52)                 1.4437         estimate D2E/DX2                !
 ! R10   R(7,71)                 1.4451         estimate D2E/DX2                !
 ! R11   R(7,79)                 1.3899         estimate D2E/DX2                !
 ! R12   R(8,80)                 1.1007         estimate D2E/DX2                !
 ! R13   R(9,80)                 1.0927         estimate D2E/DX2                !
 ! R14   R(10,41)                1.0928         estimate D2E/DX2                !
 ! R15   R(11,22)                1.5053         estimate D2E/DX2                !
 ! R16   R(12,35)                1.3408         estimate D2E/DX2                !
 ! R17   R(13,14)                1.4007         estimate D2E/DX2                !
 ! R18   R(13,20)                1.3409         estimate D2E/DX2                !
 ! R19   R(13,81)                1.4161         estimate D2E/DX2                !
 ! R20   R(14,17)                1.0863         estimate D2E/DX2                !
 ! R21   R(14,47)                1.4125         estimate D2E/DX2                !
 ! R22   R(15,36)                1.1568         estimate D2E/DX2                !
 ! R23   R(16,49)                1.0883         estimate D2E/DX2                !
 ! R24   R(18,41)                1.1008         estimate D2E/DX2                !
 ! R25   R(19,23)                1.3993         estimate D2E/DX2                !
 ! R26   R(19,35)                1.4161         estimate D2E/DX2                !
 ! R27   R(19,37)                1.3417         estimate D2E/DX2                !
 ! R28   R(21,43)                1.7526         estimate D2E/DX2                !
 ! R29   R(21,66)                1.4296         estimate D2E/DX2                !
 ! R30   R(21,70)                1.4063         estimate D2E/DX2                !
 ! R31   R(22,70)                1.4263         estimate D2E/DX2                !
 ! R32   R(23,25)                1.0883         estimate D2E/DX2                !
 ! R33   R(23,30)                1.4056         estimate D2E/DX2                !
 ! R34   R(24,32)                1.0864         estimate D2E/DX2                !
 ! R35   R(26,31)                1.39           estimate D2E/DX2                !
 ! R36   R(26,47)                1.488          estimate D2E/DX2                !
 ! R37   R(26,62)                1.476          estimate D2E/DX2                !
 ! R38   R(27,33)                1.2262         estimate D2E/DX2                !
 ! R39   R(27,46)                1.4954         estimate D2E/DX2                !
 ! R40   R(27,62)                1.5055         estimate D2E/DX2                !
 ! R41   R(28,54)                1.7817         estimate D2E/DX2                !
 ! R42   R(28,58)                1.7643         estimate D2E/DX2                !
 ! R43   R(29,30)                1.4148         estimate D2E/DX2                !
 ! R44   R(29,32)                1.4125         estimate D2E/DX2                !
 ! R45   R(29,79)                1.4881         estimate D2E/DX2                !
 ! R46   R(30,74)                1.4954         estimate D2E/DX2                !
 ! R47   R(31,36)                1.4437         estimate D2E/DX2                !
 ! R48   R(31,42)                1.4452         estimate D2E/DX2                !
 ! R49   R(32,35)                1.4007         estimate D2E/DX2                !
 ! R50   R(34,63)                1.7976         estimate D2E/DX2                !
 ! R51   R(34,72)                1.7527         estimate D2E/DX2                !
 ! R52   R(38,39)                1.4296         estimate D2E/DX2                !
 ! R53   R(38,45)                1.4601         estimate D2E/DX2                !
 ! R54   R(38,73)                1.3995         estimate D2E/DX2                !
 ! R55   R(39,50)                1.458          estimate D2E/DX2                !
 ! R56   R(39,58)                1.4178         estimate D2E/DX2                !
 ! R57   R(40,65)                1.7643         estimate D2E/DX2                !
 ! R58   R(40,70)                1.7817         estimate D2E/DX2                !
 ! R59   R(41,73)                1.4559         estimate D2E/DX2                !
 ! R60   R(42,48)                1.1572         estimate D2E/DX2                !
 ! R61   R(44,45)                1.4295         estimate D2E/DX2                !
 ! R62   R(44,51)                1.4582         estimate D2E/DX2                !
 ! R63   R(44,65)                1.4178         estimate D2E/DX2                !
 ! R64   R(45,78)                1.3996         estimate D2E/DX2                !
 ! R65   R(46,47)                1.4148         estimate D2E/DX2                !
 ! R66   R(46,49)                1.4056         estimate D2E/DX2                !
 ! R67   R(49,81)                1.3993         estimate D2E/DX2                !
 ! R68   R(50,51)                1.4834         estimate D2E/DX2                !
 ! R69   R(50,57)                1.3146         estimate D2E/DX2                !
 ! R70   R(51,55)                1.3145         estimate D2E/DX2                !
 ! R71   R(52,83)                1.1569         estimate D2E/DX2                !
 ! R72   R(53,81)                1.3417         estimate D2E/DX2                !
 ! R73   R(54,64)                1.4262         estimate D2E/DX2                !
 ! R74   R(54,72)                1.4063         estimate D2E/DX2                !
 ! R75   R(55,67)                1.9161         estimate D2E/DX2                !
 ! R76   R(56,69)                1.0944         estimate D2E/DX2                !
 ! R77   R(57,67)                1.9161         estimate D2E/DX2                !
 ! R78   R(58,68)                1.4049         estimate D2E/DX2                !
 ! R79   R(59,69)                1.0907         estimate D2E/DX2                !
 ! R80   R(60,69)                1.0915         estimate D2E/DX2                !
 ! R81   R(61,62)                1.3891         estimate D2E/DX2                !
 ! R82   R(61,85)                1.0949         estimate D2E/DX2                !
 ! R83   R(63,64)                1.4111         estimate D2E/DX2                !
 ! R84   R(63,75)                1.439          estimate D2E/DX2                !
 ! R85   R(64,69)                1.5052         estimate D2E/DX2                !
 ! R86   R(65,66)                1.405          estimate D2E/DX2                !
 ! R87   R(66,78)                1.3915         estimate D2E/DX2                !
 ! R88   R(68,72)                1.4296         estimate D2E/DX2                !
 ! R89   R(68,73)                1.3915         estimate D2E/DX2                !
 ! R90   R(71,84)                1.1571         estimate D2E/DX2                !
 ! R91   R(74,76)                1.5054         estimate D2E/DX2                !
 ! R92   R(75,76)                1.3891         estimate D2E/DX2                !
 ! R93   R(75,77)                1.095          estimate D2E/DX2                !
 ! R94   R(76,79)                1.4761         estimate D2E/DX2                !
 ! R95   R(78,80)                1.456          estimate D2E/DX2                !
 ! R96   R(80,82)                1.093          estimate D2E/DX2                !
 ! A1    A(22,3,43)            111.1759         estimate D2E/DX2                !
 ! A2    A(22,3,61)            131.5653         estimate D2E/DX2                !
 ! A3    A(43,3,61)            117.1065         estimate D2E/DX2                !
 ! A4    A(52,7,71)            112.2919         estimate D2E/DX2                !
 ! A5    A(52,7,79)            124.0306         estimate D2E/DX2                !
 ! A6    A(71,7,79)            123.6392         estimate D2E/DX2                !
 ! A7    A(1,11,2)             107.3188         estimate D2E/DX2                !
 ! A8    A(1,11,4)             107.4131         estimate D2E/DX2                !
 ! A9    A(1,11,22)            110.943          estimate D2E/DX2                !
 ! A10   A(2,11,4)             107.9519         estimate D2E/DX2                !
 ! A11   A(2,11,22)            112.1973         estimate D2E/DX2                !
 ! A12   A(4,11,22)            110.8118         estimate D2E/DX2                !
 ! A13   A(14,13,20)           119.3433         estimate D2E/DX2                !
 ! A14   A(14,13,81)           121.6804         estimate D2E/DX2                !
 ! A15   A(20,13,81)           118.9756         estimate D2E/DX2                !
 ! A16   A(13,14,17)           118.8442         estimate D2E/DX2                !
 ! A17   A(13,14,47)           118.2382         estimate D2E/DX2                !
 ! A18   A(17,14,47)           122.9112         estimate D2E/DX2                !
 ! A19   A(23,19,35)           120.5163         estimate D2E/DX2                !
 ! A20   A(23,19,37)           120.1371         estimate D2E/DX2                !
 ! A21   A(35,19,37)           119.3452         estimate D2E/DX2                !
 ! A22   A(43,21,66)           137.0525         estimate D2E/DX2                !
 ! A23   A(43,21,70)           110.6094         estimate D2E/DX2                !
 ! A24   A(66,21,70)           112.3368         estimate D2E/DX2                !
 ! A25   A(3,22,11)            126.1016         estimate D2E/DX2                !
 ! A26   A(3,22,70)            111.3711         estimate D2E/DX2                !
 ! A27   A(11,22,70)           122.3961         estimate D2E/DX2                !
 ! A28   A(19,23,25)           121.1463         estimate D2E/DX2                !
 ! A29   A(19,23,30)           117.7352         estimate D2E/DX2                !
 ! A30   A(25,23,30)           121.1183         estimate D2E/DX2                !
 ! A31   A(31,26,47)           125.951          estimate D2E/DX2                !
 ! A32   A(31,26,62)           126.3492         estimate D2E/DX2                !
 ! A33   A(47,26,62)           107.3667         estimate D2E/DX2                !
 ! A34   A(33,27,46)           125.503          estimate D2E/DX2                !
 ! A35   A(33,27,62)           127.9847         estimate D2E/DX2                !
 ! A36   A(46,27,62)           106.2992         estimate D2E/DX2                !
 ! A37   A(54,28,58)            90.0097         estimate D2E/DX2                !
 ! A38   A(30,29,32)           119.5391         estimate D2E/DX2                !
 ! A39   A(30,29,79)           109.3608         estimate D2E/DX2                !
 ! A40   A(32,29,79)           131.0985         estimate D2E/DX2                !
 ! A41   A(23,30,29)           122.2891         estimate D2E/DX2                !
 ! A42   A(23,30,74)           128.3764         estimate D2E/DX2                !
 ! A43   A(29,30,74)           109.2991         estimate D2E/DX2                !
 ! A44   A(26,31,36)           124.0247         estimate D2E/DX2                !
 ! A45   A(26,31,42)           123.6577         estimate D2E/DX2                !
 ! A46   A(36,31,42)           112.281          estimate D2E/DX2                !
 ! A47   A(24,32,29)           122.9072         estimate D2E/DX2                !
 ! A48   A(24,32,35)           118.8519         estimate D2E/DX2                !
 ! A49   A(29,32,35)           118.2344         estimate D2E/DX2                !
 ! A50   A(63,34,72)            91.4302         estimate D2E/DX2                !
 ! A51   A(12,35,19)           118.9761         estimate D2E/DX2                !
 ! A52   A(12,35,32)           119.3422         estimate D2E/DX2                !
 ! A53   A(19,35,32)           121.681          estimate D2E/DX2                !
 ! A54   A(39,38,45)           118.7248         estimate D2E/DX2                !
 ! A55   A(39,38,73)           108.4764         estimate D2E/DX2                !
 ! A56   A(45,38,73)           132.7963         estimate D2E/DX2                !
 ! A57   A(38,39,50)           122.8226         estimate D2E/DX2                !
 ! A58   A(38,39,58)           106.6143         estimate D2E/DX2                !
 ! A59   A(50,39,58)           130.2253         estimate D2E/DX2                !
 ! A60   A(65,40,70)            90.0148         estimate D2E/DX2                !
 ! A61   A(6,41,10)            107.138          estimate D2E/DX2                !
 ! A62   A(6,41,18)            107.2354         estimate D2E/DX2                !
 ! A63   A(6,41,73)            109.7962         estimate D2E/DX2                !
 ! A64   A(10,41,18)           108.9262         estimate D2E/DX2                !
 ! A65   A(10,41,73)           111.0432         estimate D2E/DX2                !
 ! A66   A(18,41,73)           112.4901         estimate D2E/DX2                !
 ! A67   A(3,43,21)             91.4305         estimate D2E/DX2                !
 ! A68   A(45,44,51)           122.818          estimate D2E/DX2                !
 ! A69   A(45,44,65)           106.6198         estimate D2E/DX2                !
 ! A70   A(51,44,65)           130.2332         estimate D2E/DX2                !
 ! A71   A(38,45,44)           118.737          estimate D2E/DX2                !
 ! A72   A(38,45,78)           132.7871         estimate D2E/DX2                !
 ! A73   A(44,45,78)           108.4744         estimate D2E/DX2                !
 ! A74   A(27,46,47)           109.3011         estimate D2E/DX2                !
 ! A75   A(27,46,49)           128.3738         estimate D2E/DX2                !
 ! A76   A(47,46,49)           122.2906         estimate D2E/DX2                !
 ! A77   A(14,47,26)           131.1023         estimate D2E/DX2                !
 ! A78   A(14,47,46)           119.5359         estimate D2E/DX2                !
 ! A79   A(26,47,46)           109.3604         estimate D2E/DX2                !
 ! A80   A(16,49,46)           121.1236         estimate D2E/DX2                !
 ! A81   A(16,49,81)           121.1411         estimate D2E/DX2                !
 ! A82   A(46,49,81)           117.7352         estimate D2E/DX2                !
 ! A83   A(39,50,51)           117.832          estimate D2E/DX2                !
 ! A84   A(39,50,57)           123.5855         estimate D2E/DX2                !
 ! A85   A(51,50,57)           118.5088         estimate D2E/DX2                !
 ! A86   A(44,51,50)           117.8221         estimate D2E/DX2                !
 ! A87   A(44,51,55)           123.5894         estimate D2E/DX2                !
 ! A88   A(50,51,55)           118.5167         estimate D2E/DX2                !
 ! A89   A(28,54,64)           132.4362         estimate D2E/DX2                !
 ! A90   A(28,54,72)           112.2563         estimate D2E/DX2                !
 ! A91   A(64,54,72)           115.2972         estimate D2E/DX2                !
 ! A92   A(51,55,67)           105.8786         estimate D2E/DX2                !
 ! A93   A(50,57,67)           105.8789         estimate D2E/DX2                !
 ! A94   A(28,58,39)           139.5636         estimate D2E/DX2                !
 ! A95   A(28,58,68)           112.6354         estimate D2E/DX2                !
 ! A96   A(39,58,68)           107.7717         estimate D2E/DX2                !
 ! A97   A(3,61,62)            128.7429         estimate D2E/DX2                !
 ! A98   A(3,61,85)            114.2372         estimate D2E/DX2                !
 ! A99   A(62,61,85)           116.9065         estimate D2E/DX2                !
 ! A100  A(26,62,27)           107.4            estimate D2E/DX2                !
 ! A101  A(26,62,61)           125.8165         estimate D2E/DX2                !
 ! A102  A(27,62,61)           125.3502         estimate D2E/DX2                !
 ! A103  A(34,63,64)           111.1799         estimate D2E/DX2                !
 ! A104  A(34,63,75)           117.1224         estimate D2E/DX2                !
 ! A105  A(64,63,75)           131.5503         estimate D2E/DX2                !
 ! A106  A(54,64,63)           111.3666         estimate D2E/DX2                !
 ! A107  A(54,64,69)           122.3931         estimate D2E/DX2                !
 ! A108  A(63,64,69)           126.1111         estimate D2E/DX2                !
 ! A109  A(40,65,44)           139.5762         estimate D2E/DX2                !
 ! A110  A(40,65,66)           112.6272         estimate D2E/DX2                !
 ! A111  A(44,65,66)           107.7702         estimate D2E/DX2                !
 ! A112  A(21,66,65)           112.7638         estimate D2E/DX2                !
 ! A113  A(21,66,78)           138.005          estimate D2E/DX2                !
 ! A114  A(65,66,78)           109.2041         estimate D2E/DX2                !
 ! A115  A(55,67,57)            91.2161         estimate D2E/DX2                !
 ! A116  A(58,68,72)           112.7581         estimate D2E/DX2                !
 ! A117  A(58,68,73)           109.2038         estimate D2E/DX2                !
 ! A118  A(72,68,73)           138.0076         estimate D2E/DX2                !
 ! A119  A(56,69,59)           107.3218         estimate D2E/DX2                !
 ! A120  A(56,69,60)           107.4141         estimate D2E/DX2                !
 ! A121  A(56,69,64)           110.9402         estimate D2E/DX2                !
 ! A122  A(59,69,60)           107.9497         estimate D2E/DX2                !
 ! A123  A(59,69,64)           112.2002         estimate D2E/DX2                !
 ! A124  A(60,69,64)           110.81           estimate D2E/DX2                !
 ! A125  A(21,70,22)           115.2938         estimate D2E/DX2                !
 ! A126  A(21,70,40)           112.2547         estimate D2E/DX2                !
 ! A127  A(22,70,40)           132.4427         estimate D2E/DX2                !
 ! A128  A(34,72,54)           110.6044         estimate D2E/DX2                !
 ! A129  A(34,72,68)           137.0576         estimate D2E/DX2                !
 ! A130  A(54,72,68)           112.3373         estimate D2E/DX2                !
 ! A131  A(38,73,41)           129.0268         estimate D2E/DX2                !
 ! A132  A(38,73,68)           107.8693         estimate D2E/DX2                !
 ! A133  A(41,73,68)           121.953          estimate D2E/DX2                !
 ! A134  A(5,74,30)            125.4941         estimate D2E/DX2                !
 ! A135  A(5,74,76)            127.9865         estimate D2E/DX2                !
 ! A136  A(30,74,76)           106.303          estimate D2E/DX2                !
 ! A137  A(63,75,76)           128.7207         estimate D2E/DX2                !
 ! A138  A(63,75,77)           114.2418         estimate D2E/DX2                !
 ! A139  A(76,75,77)           116.923          estimate D2E/DX2                !
 ! A140  A(74,76,75)           125.3487         estimate D2E/DX2                !
 ! A141  A(74,76,79)           107.4043         estimate D2E/DX2                !
 ! A142  A(75,76,79)           125.8168         estimate D2E/DX2                !
 ! A143  A(45,78,66)           107.8661         estimate D2E/DX2                !
 ! A144  A(45,78,80)           129.0227         estimate D2E/DX2                !
 ! A145  A(66,78,80)           121.9467         estimate D2E/DX2                !
 ! A146  A(7,79,29)            125.9643         estimate D2E/DX2                !
 ! A147  A(7,79,76)            126.3419         estimate D2E/DX2                !
 ! A148  A(29,79,76)           107.3575         estimate D2E/DX2                !
 ! A149  A(8,80,9)             108.9259         estimate D2E/DX2                !
 ! A150  A(8,80,78)            112.4885         estimate D2E/DX2                !
 ! A151  A(8,80,82)            107.239          estimate D2E/DX2                !
 ! A152  A(9,80,78)            111.0389         estimate D2E/DX2                !
 ! A153  A(9,80,82)            107.1419         estimate D2E/DX2                !
 ! A154  A(78,80,82)           109.7954         estimate D2E/DX2                !
 ! A155  A(13,81,49)           120.515          estimate D2E/DX2                !
 ! A156  A(13,81,53)           119.3438         estimate D2E/DX2                !
 ! A157  A(49,81,53)           120.1399         estimate D2E/DX2                !
 ! A158  L(15,36,31,13,-1)     183.1221         estimate D2E/DX2                !
 ! A159  L(31,42,48,1,-1)      182.6864         estimate D2E/DX2                !
 ! A160  L(7,52,83,12,-1)      183.1365         estimate D2E/DX2                !
 ! A161  L(7,71,84,6,-1)       183.6194         estimate D2E/DX2                !
 ! A162  L(15,36,31,13,-2)     179.9425         estimate D2E/DX2                !
 ! A163  L(31,42,48,1,-2)      177.4032         estimate D2E/DX2                !
 ! A164  L(7,52,83,12,-2)      180.0256         estimate D2E/DX2                !
 ! A165  L(7,71,84,6,-2)       180.3823         estimate D2E/DX2                !
 ! D1    D(43,3,22,11)        -172.9031         estimate D2E/DX2                !
 ! D2    D(43,3,22,70)           2.9904         estimate D2E/DX2                !
 ! D3    D(61,3,22,11)           2.3778         estimate D2E/DX2                !
 ! D4    D(61,3,22,70)         178.2713         estimate D2E/DX2                !
 ! D5    D(22,3,43,21)          -3.3041         estimate D2E/DX2                !
 ! D6    D(61,3,43,21)        -179.339          estimate D2E/DX2                !
 ! D7    D(22,3,61,62)          38.4529         estimate D2E/DX2                !
 ! D8    D(22,3,61,85)        -145.5839         estimate D2E/DX2                !
 ! D9    D(43,3,61,62)        -146.491          estimate D2E/DX2                !
 ! D10   D(43,3,61,85)          29.4722         estimate D2E/DX2                !
 ! D11   D(52,7,79,29)           4.1702         estimate D2E/DX2                !
 ! D12   D(52,7,79,76)         176.6567         estimate D2E/DX2                !
 ! D13   D(71,7,79,29)        -173.4047         estimate D2E/DX2                !
 ! D14   D(71,7,79,76)          -0.9182         estimate D2E/DX2                !
 ! D15   D(1,11,22,3)          -97.1272         estimate D2E/DX2                !
 ! D16   D(1,11,22,70)          87.4026         estimate D2E/DX2                !
 ! D17   D(2,11,22,3)           22.9009         estimate D2E/DX2                !
 ! D18   D(2,11,22,70)        -152.5693         estimate D2E/DX2                !
 ! D19   D(4,11,22,3)          143.646          estimate D2E/DX2                !
 ! D20   D(4,11,22,70)         -31.8241         estimate D2E/DX2                !
 ! D21   D(20,13,14,17)          0.6032         estimate D2E/DX2                !
 ! D22   D(20,13,14,47)        179.7025         estimate D2E/DX2                !
 ! D23   D(81,13,14,17)       -179.0849         estimate D2E/DX2                !
 ! D24   D(81,13,14,47)          0.0144         estimate D2E/DX2                !
 ! D25   D(14,13,81,49)          0.538          estimate D2E/DX2                !
 ! D26   D(14,13,81,53)       -179.8774         estimate D2E/DX2                !
 ! D27   D(20,13,81,49)       -179.1512         estimate D2E/DX2                !
 ! D28   D(20,13,81,53)          0.4334         estimate D2E/DX2                !
 ! D29   D(13,14,47,26)        179.9155         estimate D2E/DX2                !
 ! D30   D(13,14,47,46)         -0.5701         estimate D2E/DX2                !
 ! D31   D(17,14,47,26)         -1.0243         estimate D2E/DX2                !
 ! D32   D(17,14,47,46)        178.4901         estimate D2E/DX2                !
 ! D33   D(35,19,23,25)        179.3435         estimate D2E/DX2                !
 ! D34   D(35,19,23,30)         -0.5042         estimate D2E/DX2                !
 ! D35   D(37,19,23,25)         -0.2311         estimate D2E/DX2                !
 ! D36   D(37,19,23,30)        179.9213         estimate D2E/DX2                !
 ! D37   D(23,19,35,12)       -179.1232         estimate D2E/DX2                !
 ! D38   D(23,19,35,32)          0.5569         estimate D2E/DX2                !
 ! D39   D(37,19,35,12)          0.4547         estimate D2E/DX2                !
 ! D40   D(37,19,35,32)       -179.8652         estimate D2E/DX2                !
 ! D41   D(66,21,43,3)        -177.741          estimate D2E/DX2                !
 ! D42   D(70,21,43,3)           2.709          estimate D2E/DX2                !
 ! D43   D(43,21,66,65)       -179.6393         estimate D2E/DX2                !
 ! D44   D(43,21,66,78)          2.5396         estimate D2E/DX2                !
 ! D45   D(70,21,66,65)         -0.0947         estimate D2E/DX2                !
 ! D46   D(70,21,66,78)       -177.9158         estimate D2E/DX2                !
 ! D47   D(43,21,70,22)         -1.5471         estimate D2E/DX2                !
 ! D48   D(43,21,70,40)        179.3927         estimate D2E/DX2                !
 ! D49   D(66,21,70,22)        178.7843         estimate D2E/DX2                !
 ! D50   D(66,21,70,40)         -0.2758         estimate D2E/DX2                !
 ! D51   D(3,22,70,21)          -0.9776         estimate D2E/DX2                !
 ! D52   D(3,22,70,40)         177.8437         estimate D2E/DX2                !
 ! D53   D(11,22,70,21)        175.0932         estimate D2E/DX2                !
 ! D54   D(11,22,70,40)         -6.0855         estimate D2E/DX2                !
 ! D55   D(19,23,30,29)         -0.0881         estimate D2E/DX2                !
 ! D56   D(19,23,30,74)        177.5046         estimate D2E/DX2                !
 ! D57   D(25,23,30,29)       -179.9358         estimate D2E/DX2                !
 ! D58   D(25,23,30,74)         -2.3431         estimate D2E/DX2                !
 ! D59   D(47,26,31,36)          4.2135         estimate D2E/DX2                !
 ! D60   D(47,26,31,42)       -173.4143         estimate D2E/DX2                !
 ! D61   D(62,26,31,36)        176.737          estimate D2E/DX2                !
 ! D62   D(62,26,31,42)         -0.8908         estimate D2E/DX2                !
 ! D63   D(31,26,47,14)        -11.4849         estimate D2E/DX2                !
 ! D64   D(31,26,47,46)        168.963          estimate D2E/DX2                !
 ! D65   D(62,26,47,14)        174.8193         estimate D2E/DX2                !
 ! D66   D(62,26,47,46)         -4.7329         estimate D2E/DX2                !
 ! D67   D(31,26,62,27)       -168.3382         estimate D2E/DX2                !
 ! D68   D(31,26,62,61)         24.7889         estimate D2E/DX2                !
 ! D69   D(47,26,62,27)          5.3254         estimate D2E/DX2                !
 ! D70   D(47,26,62,61)       -161.5475         estimate D2E/DX2                !
 ! D71   D(33,27,46,47)        176.1762         estimate D2E/DX2                !
 ! D72   D(33,27,46,49)         -1.6969         estimate D2E/DX2                !
 ! D73   D(62,27,46,47)          1.1368         estimate D2E/DX2                !
 ! D74   D(62,27,46,49)       -176.7363         estimate D2E/DX2                !
 ! D75   D(33,27,62,26)       -178.8927         estimate D2E/DX2                !
 ! D76   D(33,27,62,61)        -11.9423         estimate D2E/DX2                !
 ! D77   D(46,27,62,26)         -4.0169         estimate D2E/DX2                !
 ! D78   D(46,27,62,61)        162.9336         estimate D2E/DX2                !
 ! D79   D(58,28,54,64)       -178.286          estimate D2E/DX2                !
 ! D80   D(58,28,54,72)          0.4665         estimate D2E/DX2                !
 ! D81   D(54,28,58,39)        177.1637         estimate D2E/DX2                !
 ! D82   D(54,28,58,68)         -0.5257         estimate D2E/DX2                !
 ! D83   D(32,29,30,23)          0.6438         estimate D2E/DX2                !
 ! D84   D(32,29,30,74)       -177.3568         estimate D2E/DX2                !
 ! D85   D(79,29,30,23)       -179.7687         estimate D2E/DX2                !
 ! D86   D(79,29,30,74)          2.2307         estimate D2E/DX2                !
 ! D87   D(30,29,32,24)        178.4704         estimate D2E/DX2                !
 ! D88   D(30,29,32,35)         -0.5864         estimate D2E/DX2                !
 ! D89   D(79,29,32,24)         -1.0132         estimate D2E/DX2                !
 ! D90   D(79,29,32,35)        179.93           estimate D2E/DX2                !
 ! D91   D(30,29,79,7)         168.8946         estimate D2E/DX2                !
 ! D92   D(30,29,79,76)         -4.7698         estimate D2E/DX2                !
 ! D93   D(32,29,79,7)         -11.5816         estimate D2E/DX2                !
 ! D94   D(32,29,79,76)        174.754          estimate D2E/DX2                !
 ! D95   D(23,30,74,5)          -1.7258         estimate D2E/DX2                !
 ! D96   D(23,30,74,76)       -176.7282         estimate D2E/DX2                !
 ! D97   D(29,30,74,5)         176.1181         estimate D2E/DX2                !
 ! D98   D(29,30,74,76)          1.1157         estimate D2E/DX2                !
 ! D99   D(24,32,35,12)          0.588          estimate D2E/DX2                !
 ! D100  D(24,32,35,19)       -179.0909         estimate D2E/DX2                !
 ! D101  D(29,32,35,12)        179.6839         estimate D2E/DX2                !
 ! D102  D(29,32,35,19)          0.0049         estimate D2E/DX2                !
 ! D103  D(72,34,63,64)         -3.3366         estimate D2E/DX2                !
 ! D104  D(72,34,63,75)       -179.4354         estimate D2E/DX2                !
 ! D105  D(63,34,72,54)          2.7358         estimate D2E/DX2                !
 ! D106  D(63,34,72,68)       -177.5995         estimate D2E/DX2                !
 ! D107  D(45,38,39,50)          8.1325         estimate D2E/DX2                !
 ! D108  D(45,38,39,58)       -177.9209         estimate D2E/DX2                !
 ! D109  D(73,38,39,50)       -171.3565         estimate D2E/DX2                !
 ! D110  D(73,38,39,58)          2.5901         estimate D2E/DX2                !
 ! D111  D(39,38,45,44)        -12.8344         estimate D2E/DX2                !
 ! D112  D(39,38,45,78)        166.6568         estimate D2E/DX2                !
 ! D113  D(73,38,45,44)        166.5051         estimate D2E/DX2                !
 ! D114  D(73,38,45,78)        -14.0037         estimate D2E/DX2                !
 ! D115  D(39,38,73,41)        165.3419         estimate D2E/DX2                !
 ! D116  D(39,38,73,68)         -2.3712         estimate D2E/DX2                !
 ! D117  D(45,38,73,41)        -14.0474         estimate D2E/DX2                !
 ! D118  D(45,38,73,68)        178.2395         estimate D2E/DX2                !
 ! D119  D(38,39,50,51)          1.5718         estimate D2E/DX2                !
 ! D120  D(38,39,50,57)        178.3968         estimate D2E/DX2                !
 ! D121  D(58,39,50,51)       -170.8226         estimate D2E/DX2                !
 ! D122  D(58,39,50,57)          6.0024         estimate D2E/DX2                !
 ! D123  D(38,39,58,28)       -179.5808         estimate D2E/DX2                !
 ! D124  D(38,39,58,68)         -1.8202         estimate D2E/DX2                !
 ! D125  D(50,39,58,28)         -6.2461         estimate D2E/DX2                !
 ! D126  D(50,39,58,68)        171.5145         estimate D2E/DX2                !
 ! D127  D(70,40,65,44)        177.3201         estimate D2E/DX2                !
 ! D128  D(70,40,65,66)         -0.4864         estimate D2E/DX2                !
 ! D129  D(65,40,70,21)          0.4319         estimate D2E/DX2                !
 ! D130  D(65,40,70,22)       -178.4166         estimate D2E/DX2                !
 ! D131  D(6,41,73,38)        -142.3195         estimate D2E/DX2                !
 ! D132  D(6,41,73,68)          23.8701         estimate D2E/DX2                !
 ! D133  D(10,41,73,38)        -24.0224         estimate D2E/DX2                !
 ! D134  D(10,41,73,68)        142.1672         estimate D2E/DX2                !
 ! D135  D(18,41,73,38)         98.3498         estimate D2E/DX2                !
 ! D136  D(18,41,73,68)        -95.4606         estimate D2E/DX2                !
 ! D137  D(51,44,45,38)          8.1836         estimate D2E/DX2                !
 ! D138  D(51,44,45,78)       -171.4226         estimate D2E/DX2                !
 ! D139  D(65,44,45,38)       -177.7901         estimate D2E/DX2                !
 ! D140  D(65,44,45,78)          2.6036         estimate D2E/DX2                !
 ! D141  D(45,44,51,50)          1.522          estimate D2E/DX2                !
 ! D142  D(45,44,51,55)        178.3889         estimate D2E/DX2                !
 ! D143  D(65,44,51,50)       -170.972          estimate D2E/DX2                !
 ! D144  D(65,44,51,55)          5.8949         estimate D2E/DX2                !
 ! D145  D(45,44,65,40)       -179.6908         estimate D2E/DX2                !
 ! D146  D(45,44,65,66)         -1.8169         estimate D2E/DX2                !
 ! D147  D(51,44,65,40)         -6.2694         estimate D2E/DX2                !
 ! D148  D(51,44,65,66)        171.6045         estimate D2E/DX2                !
 ! D149  D(38,45,78,66)        178.074          estimate D2E/DX2                !
 ! D150  D(38,45,78,80)        -14.2849         estimate D2E/DX2                !
 ! D151  D(44,45,78,66)         -2.3964         estimate D2E/DX2                !
 ! D152  D(44,45,78,80)        165.2447         estimate D2E/DX2                !
 ! D153  D(27,46,47,14)       -177.4179         estimate D2E/DX2                !
 ! D154  D(27,46,47,26)          2.1942         estimate D2E/DX2                !
 ! D155  D(49,46,47,14)          0.6097         estimate D2E/DX2                !
 ! D156  D(49,46,47,26)       -179.7782         estimate D2E/DX2                !
 ! D157  D(27,46,49,16)         -2.2967         estimate D2E/DX2                !
 ! D158  D(27,46,49,81)        177.5618         estimate D2E/DX2                !
 ! D159  D(47,46,49,16)       -179.922          estimate D2E/DX2                !
 ! D160  D(47,46,49,81)         -0.0635         estimate D2E/DX2                !
 ! D161  D(16,49,81,13)        179.356          estimate D2E/DX2                !
 ! D162  D(16,49,81,53)         -0.2253         estimate D2E/DX2                !
 ! D163  D(46,49,81,13)         -0.5025         estimate D2E/DX2                !
 ! D164  D(46,49,81,53)        179.9163         estimate D2E/DX2                !
 ! D165  D(39,50,51,44)         -6.3576         estimate D2E/DX2                !
 ! D166  D(39,50,51,55)        176.6125         estimate D2E/DX2                !
 ! D167  D(57,50,51,44)        176.6522         estimate D2E/DX2                !
 ! D168  D(57,50,51,55)         -0.3777         estimate D2E/DX2                !
 ! D169  D(39,50,57,67)       -176.5509         estimate D2E/DX2                !
 ! D170  D(51,50,57,67)          0.2539         estimate D2E/DX2                !
 ! D171  D(44,51,55,67)       -176.589          estimate D2E/DX2                !
 ! D172  D(50,51,55,67)          0.2575         estimate D2E/DX2                !
 ! D173  D(28,54,64,63)        177.7368         estimate D2E/DX2                !
 ! D174  D(28,54,64,69)         -6.1636         estimate D2E/DX2                !
 ! D175  D(72,54,64,63)         -0.9862         estimate D2E/DX2                !
 ! D176  D(72,54,64,69)        175.1134         estimate D2E/DX2                !
 ! D177  D(28,54,72,34)        179.4554         estimate D2E/DX2                !
 ! D178  D(28,54,72,68)         -0.2977         estimate D2E/DX2                !
 ! D179  D(64,54,72,34)         -1.5629         estimate D2E/DX2                !
 ! D180  D(64,54,72,68)        178.684          estimate D2E/DX2                !
 ! D181  D(51,55,67,57)         -0.0957         estimate D2E/DX2                !
 ! D182  D(50,57,67,55)         -0.0912         estimate D2E/DX2                !
 ! D183  D(28,58,68,72)          0.4625         estimate D2E/DX2                !
 ! D184  D(28,58,68,73)        178.8234         estimate D2E/DX2                !
 ! D185  D(39,58,68,72)       -177.964          estimate D2E/DX2                !
 ! D186  D(39,58,68,73)          0.3969         estimate D2E/DX2                !
 ! D187  D(3,61,62,26)        -172.6521         estimate D2E/DX2                !
 ! D188  D(3,61,62,27)          22.7569         estimate D2E/DX2                !
 ! D189  D(85,61,62,26)         11.4759         estimate D2E/DX2                !
 ! D190  D(85,61,62,27)       -153.1151         estimate D2E/DX2                !
 ! D191  D(34,63,64,54)          3.0193         estimate D2E/DX2                !
 ! D192  D(34,63,64,69)       -172.9038         estimate D2E/DX2                !
 ! D193  D(75,63,64,54)        178.3782         estimate D2E/DX2                !
 ! D194  D(75,63,64,69)          2.4551         estimate D2E/DX2                !
 ! D195  D(34,63,75,76)       -146.4731         estimate D2E/DX2                !
 ! D196  D(34,63,75,77)         29.4724         estimate D2E/DX2                !
 ! D197  D(64,63,75,76)         38.3897         estimate D2E/DX2                !
 ! D198  D(64,63,75,77)       -145.6648         estimate D2E/DX2                !
 ! D199  D(54,64,69,56)         87.2728         estimate D2E/DX2                !
 ! D200  D(54,64,69,59)       -152.6953         estimate D2E/DX2                !
 ! D201  D(54,64,69,60)        -31.9523         estimate D2E/DX2                !
 ! D202  D(63,64,69,56)        -97.2244         estimate D2E/DX2                !
 ! D203  D(63,64,69,59)         22.8075         estimate D2E/DX2                !
 ! D204  D(63,64,69,60)        143.5506         estimate D2E/DX2                !
 ! D205  D(40,65,66,21)          0.4277         estimate D2E/DX2                !
 ! D206  D(40,65,66,78)        178.8841         estimate D2E/DX2                !
 ! D207  D(44,65,66,21)       -178.0789         estimate D2E/DX2                !
 ! D208  D(44,65,66,78)          0.3775         estimate D2E/DX2                !
 ! D209  D(21,66,78,45)        179.1291         estimate D2E/DX2                !
 ! D210  D(21,66,78,80)         10.43           estimate D2E/DX2                !
 ! D211  D(65,66,78,45)          1.2567         estimate D2E/DX2                !
 ! D212  D(65,66,78,80)       -167.4424         estimate D2E/DX2                !
 ! D213  D(58,68,72,34)       -179.7635         estimate D2E/DX2                !
 ! D214  D(58,68,72,54)         -0.1028         estimate D2E/DX2                !
 ! D215  D(73,68,72,34)          2.5505         estimate D2E/DX2                !
 ! D216  D(73,68,72,54)       -177.7888         estimate D2E/DX2                !
 ! D217  D(58,68,73,38)          1.229          estimate D2E/DX2                !
 ! D218  D(58,68,73,41)       -167.5355         estimate D2E/DX2                !
 ! D219  D(72,68,73,38)        178.9695         estimate D2E/DX2                !
 ! D220  D(72,68,73,41)         10.2049         estimate D2E/DX2                !
 ! D221  D(5,74,76,75)         -11.8918         estimate D2E/DX2                !
 ! D222  D(5,74,76,79)        -178.8563         estimate D2E/DX2                !
 ! D223  D(30,74,76,75)        162.9452         estimate D2E/DX2                !
 ! D224  D(30,74,76,79)         -4.0193         estimate D2E/DX2                !
 ! D225  D(63,75,76,74)         22.7769         estimate D2E/DX2                !
 ! D226  D(63,75,76,79)       -172.6152         estimate D2E/DX2                !
 ! D227  D(77,75,76,74)       -153.0766         estimate D2E/DX2                !
 ! D228  D(77,75,76,79)         11.5314         estimate D2E/DX2                !
 ! D229  D(74,76,79,7)        -168.2851         estimate D2E/DX2                !
 ! D230  D(74,76,79,29)          5.3486         estimate D2E/DX2                !
 ! D231  D(75,76,79,7)          24.8282         estimate D2E/DX2                !
 ! D232  D(75,76,79,29)       -161.5381         estimate D2E/DX2                !
 ! D233  D(45,78,80,8)          98.5471         estimate D2E/DX2                !
 ! D234  D(45,78,80,9)         -23.8204         estimate D2E/DX2                !
 ! D235  D(45,78,80,82)       -142.1191         estimate D2E/DX2                !
 ! D236  D(66,78,80,8)         -95.3438         estimate D2E/DX2                !
 ! D237  D(66,78,80,9)         142.2888         estimate D2E/DX2                !
 ! D238  D(66,78,80,82)         23.9901         estimate D2E/DX2                !
 --------------------------------------------------------------------------------
 Trust Radius=3.00D-01 FncErr=5.00D-06 GrdErr=5.00D-06 EigMax=2.50D+02 EigMin=1.00D-04
 Number of steps in this run=    509 maximum allowed number of steps=    510.
 GradGradGradGradGradGradGradGradGradGradGradGradGradGradGradGradGradGrad

 Stoichiometry    C48H18F4N8O2S5
 Framework group  C1[X(C48H18F4N8O2S5)]
 Deg. of freedom   249
 Full point group                 C1      NOp   1
 Largest Abelian subgroup         C1      NOp   1
 Largest concise Abelian subgroup C1      NOp   1
                         Standard orientation:                         
 ---------------------------------------------------------------------
 Center     Atomic      Atomic             Coordinates (Angstroms)
 Number     Number       Type             X           Y           Z
 ---------------------------------------------------------------------
      1          1           0       -7.947687    2.371776    0.542280
      2          1           0       -8.389068    1.386407    1.932312
      3          6           0       -6.713689   -0.539476    0.819545
      4          1           0       -7.120264    2.604205    2.080222
      5          8           0        8.815634    0.843925    1.055910
      6          1           0        2.506926   -1.740312    0.777687
      7          6           0       10.591315   -2.741139   -1.778271
      8          1           0       -1.357098   -2.132804    0.448851
      9          1           0       -0.790591   -1.508372   -1.124398
     10          1           0        0.788213   -1.520707    1.078560
     11          6           0       -7.547017    1.849860    1.416778
     12          9           0       14.717962   -1.740970    1.782458
     13          6           0      -13.503000   -1.268570   -1.478306
     14          6           0      -12.735368   -1.903781   -0.493805
     15          7           0      -12.765193   -4.083816    2.245454
     16          1           0      -11.334405    1.190885   -2.510625
     17          1           0      -13.152199   -2.764504    0.021500
     18          1           0        1.353067   -2.128717   -0.501780
     19          6           0       12.993541   -0.170158    2.231696
     20          9           0      -14.732657   -1.728430   -1.751102
     21          6           0       -4.267171    0.108637    0.584737
     22          6           0       -6.504346    0.842751    1.011322
     23          6           0       11.709730    0.326749    1.980679
     24          1           0       13.150348   -2.763439   -0.009484
     25          1           0       11.313710    1.171663    2.540750
     26          6           0      -10.399457   -1.847091    0.736138
     27          6           0       -9.551886   -0.001615   -0.548516
     28         16           0        4.265714    2.746084   -0.930856
     29          6           0       11.437049   -1.405262    0.240563
     30          6           0       10.947483   -0.304622    0.982598
     31          6           0      -10.580863   -2.756361    1.771690
     32          6           0       12.729783   -1.906818    0.509636
     33          8           0       -8.826853    0.854532   -1.043513
     34         16           0        5.160893   -1.397331   -0.569936
     35          6           0       13.490311   -1.279096    1.504426
     36          6           0      -11.808984   -3.477822    2.007399
     37          9           0       13.763345    0.397136    3.172875
     38          6           0        0.722191    0.970035   -0.120971
     39          6           0        1.381145    2.216665   -0.356514
     40         16           0       -4.261397    2.740568    0.935100
     41          6           0        1.566775   -1.425485    0.317665
     42          6           0       -9.573650   -3.049663    2.765703
     43         16           0       -5.159669   -1.399112    0.540970
     44          6           0       -1.378654    2.214649    0.347885
     45          6           0       -0.721191    0.969872    0.099185
     46          6           0      -10.956976   -0.297211   -0.966418
     47          6           0      -11.440929   -1.403999   -0.229821
     48          7           0       -8.821411   -3.308657    3.605973
     49          6           0      -11.726185    0.341487   -1.954427
     50          6           0        0.710475    3.503787   -0.217318
     51          6           0       -0.706604    3.502501    0.221238
     52          6           0       11.821989   -3.458432   -2.013296
     53          9           0      -13.787993    0.420259   -3.131965
     54          6           0        5.131088    1.189897   -0.869835
     55          7           0       -1.304175    4.656923    0.416392
     56          1           0        7.947608    2.374463   -0.523680
     57          7           0        1.309565    4.659548   -0.400476
     58          6           0        2.748227    1.916230   -0.582616
     59          1           0        8.398974    1.399551   -1.917903
     60          1           0        7.130560    2.617769   -2.065489
     61          6           0       -7.903562   -1.344974    0.898796
     62          6           0       -9.193312   -1.033338    0.487653
     63          6           0        6.716420   -0.535552   -0.832401
     64          6           0        6.508317    0.848294   -1.013708
     65          6           0       -2.745527    1.913273    0.573818
     66          6           0       -2.909673    0.526255    0.421475
     67         16           0        0.003541    5.998667    0.014869
     68          6           0        2.910908    0.527724   -0.443091
     69          6           0        7.553204    1.858792   -1.404690
     70          6           0       -5.127809    1.185415    0.863170
     71          6           0        9.590503   -3.026395   -2.780964
     72          6           0        4.268805    0.110956   -0.605071
     73          7           0        1.680475   -0.049577   -0.144631
     74          6           0        9.544756   -0.007079    0.558149
     75          6           0        7.907041   -1.339974   -0.910321
     76          6           0        9.193808   -1.030634   -0.488414
     77          1           0        7.742899   -2.349260   -1.302113
     78          7           0       -1.680391   -0.049181    0.114715
     79          6           0       10.402344   -1.841278   -0.735947
     80          6           0       -1.569213   -1.420158   -0.362801
     81          6           0      -13.011543   -0.153951   -2.200492
     82          1           0       -2.509847   -1.728020   -0.826582
     83          7           0       12.780814   -4.060128   -2.252004
     84          7           0        8.843224   -3.277777   -3.627930
     85          1           0       -7.736573   -2.356946    1.281927
 ---------------------------------------------------------------------
 Rotational constants (GHZ):           0.0713469           0.0068265           0.0065517
 Standard basis: def2SVP (5D, 7F)
 There are  1115 symmetry adapted cartesian basis functions of A   symmetry.
 There are  1048 symmetry adapted basis functions of A   symmetry.
  1048 basis functions,  1861 primitive gaussians,  1115 cartesian basis functions
   247 alpha electrons      247 beta electrons
       nuclear repulsion energy      9442.0367478527 Hartrees.
 NAtoms=   85 NActive=   85 NUniq=   85 SFac= 1.00D+00 NAtFMM=   60 NAOKFM=T Big=T
 Integral buffers will be    131072 words long.
 Raffenetti 2 integral format.
 Two-electron integral symmetry is turned on.
 Nuclear repulsion after empirical dispersion term =     9441.9593839042 Hartrees.
 ------------------------------------------------------------------------------
 Polarizable Continuum Model (PCM)
 =================================
 Model                : PCM.
 Atomic radii         : SMD-Coulomb.
 Polarization charges : Total charges.
 Charge compensation  : None.
 Solution method      : On-the-fly selection.
 Cavity type          : VdW (van der Waals Surface) (Alpha=1.000).
 Cavity algorithm     : GePol (No added spheres)
                        Default sphere list used, NSphG=   85.
                        Lebedev-Laikov grids with approx.  5.0 points / Ang**2.
                        Smoothing algorithm: York/Karplus (Gamma=1.0000).
                        Polarization charges: spherical gaussians, with
                                              point-specific exponents (IZeta= 3).
                        Self-potential: point-specific (ISelfS= 7).
                        Self-field    : sphere-specific E.n sum rule (ISelfD= 2).
 1st derivatives      : Analytical E(r).r(x)/FMM algorithm (CHGder, D1EAlg=3).
                        Cavity 1st derivative terms included.
 Solvent              : Water, Eps=  78.355300 Eps(inf)=   1.777849
 ------------------------------------------------------------------------------
 ------------------------------------------------------------------------------
 Atomic radii for non-electrostatic terms: SMD-CDS.
 ------------------------------------------------------------------------------
 Nuclear repulsion after PCM non-electrostatic terms =     9441.9887553768 Hartrees.
 One-electron integrals computed using PRISM.
   1 Symmetry operations used in ECPInt.
 ECPInt:  NShTT=  108811 NPrTT=  428325 LenC2=   51872 LenP2D=  123499.
 LDataN:  DoStor=T MaxTD1= 4 Len=   56
 NBasis=  1048 RedAO= T EigKep=  1.23D-04  NBF=  1048
 NBsUse=  1048 1.00D-06 EigRej= -1.00D+00 NBFU=  1048
 ExpMin= 1.22D-01 ExpMax= 9.18D+03 ExpMxC= 1.38D+03 IAcc=3 IRadAn=         5 AccDes= 0.00D+00
 Harris functional with IExCor= 4639 and IRadAn=       5 diagonalized for initial guess.
 HarFok:  IExCor= 4639 AccDes= 0.00D+00 IRadAn=         5 IDoV= 1 UseB2=F ITyADJ=14
 ICtDFT=  3500011 ScaDFX=  1.000000  1.000000  1.000000  1.000000
 FoFCou: FMM=F IPFlag=           0 FMFlag=      100000 FMFlg1=        2001
         NFxFlg=           0 DoJE=T BraDBF=F KetDBF=T FulRan=T
         wScrn=  0.000000 ICntrl=       500 IOpCl=  0 I1Cent=   200000004 NGrid=           0
         NMat0=    1 NMatS0=      1 NMatT0=    0 NMatD0=    1 NMtDS0=    0 NMtDT0=    0
 Petite list used in FoFCou.
 Requested convergence on RMS density matrix=1.00D-08 within 128 cycles.
 Requested convergence on MAX density matrix=1.00D-06.
 Requested convergence on             energy=1.00D-06.
 No special actions if energy rises.
 Inv3:  Mode=1 IEnd=   169651200.
 Iteration    1 A*A^-1 deviation from unit magnitude is 3.89D-15 for   5834.
 Iteration    1 A*A^-1 deviation from orthogonality  is 2.69D-15 for   2961   2258.
 Iteration    1 A^-1*A deviation from unit magnitude is 3.66D-15 for   5834.
 Iteration    1 A^-1*A deviation from orthogonality  is 3.11D-15 for   6491    380.
 Error on total polarization charges =  0.04053
 SCF Done:  E(RwB97XD) =  -4814.92815390     A.U. after   17 cycles
            NFock= 17  Conv=0.49D-08     -V/T= 2.0071
 SMD-CDS (non-electrostatic) energy       (kcal/mol) =      18.43
 (included in total energy above)

 **********************************************************************

            Population analysis using the SCF density.

 **********************************************************************

 Orbital symmetries:
       Occupied  (A) (A) (A) (A) (A) (A) (A) (A) (A) (A) (A) (A)
                 (A) (A) (A) (A) (A) (A) (A) (A) (A) (A) (A) (A)
                 (A) (A) (A) (A) (A) (A) (A) (A) (A) (A) (A) (A)
                 (A) (A) (A) (A) (A) (A) (A) (A) (A) (A) (A) (A)
                 (A) (A) (A) (A) (A) (A) (A) (A) (A) (A) (A) (A)
                 (A) (A) (A) (A) (A) (A) (A) (A) (A) (A) (A) (A)
                 (A) (A) (A) (A) (A) (A) (A) (A) (A) (A) (A) (A)
                 (A) (A) (A) (A) (A) (A) (A) (A) (A) (A) (A) (A)
                 (A) (A) (A) (A) (A) (A) (A) (A) (A) (A) (A) (A)
                 (A) (A) (A) (A) (A) (A) (A) (A) (A) (A) (A) (A)
                 (A) (A) (A) (A) (A) (A) (A) (A) (A) (A) (A) (A)
                 (A) (A) (A) (A) (A) (A) (A) (A) (A) (A) (A) (A)
                 (A) (A) (A) (A) (A) (A) (A) (A) (A) (A) (A) (A)
                 (A) (A) (A) (A) (A) (A) (A) (A) (A) (A) (A) (A)
                 (A) (A) (A) (A) (A) (A) (A) (A) (A) (A) (A) (A)
                 (A) (A) (A) (A) (A) (A) (A) (A) (A) (A) (A) (A)
                 (A) (A) (A) (A) (A) (A) (A) (A) (A) (A) (A) (A)
                 (A) (A) (A) (A) (A) (A) (A) (A) (A) (A) (A) (A)
                 (A) (A) (A) (A) (A) (A) (A) (A) (A) (A) (A) (A)
                 (A) (A) (A) (A) (A) (A) (A) (A) (A) (A) (A) (A)
                 (A) (A) (A) (A) (A) (A) (A)
       Virtual   (A) (A) (A) (A) (A) (A) (A) (A) (A) (A) (A) (A)
                 (A) (A) (A) (A) (A) (A) (A) (A) (A) (A) (A) (A)
                 (A) (A) (A) (A) (A) (A) (A) (A) (A) (A) (A) (A)
                 (A) (A) (A) (A) (A) (A) (A) (A) (A) (A) (A) (A)
                 (A) (A) (A) (A) (A) (A) (A) (A) (A) (A) (A) (A)
                 (A) (A) (A) (A) (A) (A) (A) (A) (A) (A) (A) (A)
                 (A) (A) (A) (A) (A) (A) (A) (A) (A) (A) (A) (A)
                 (A) (A) (A) (A) (A) (A) (A) (A) (A) (A) (A) (A)
                 (A) (A) (A) (A) (A) (A) (A) (A) (A) (A) (A) (A)
                 (A) (A) (A) (A) (A) (A) (A) (A) (A) (A) (A) (A)
                 (A) (A) (A) (A) (A) (A) (A) (A) (A) (A) (A) (A)
                 (A) (A) (A) (A) (A) (A) (A) (A) (A) (A) (A) (A)
                 (A) (A) (A) (A) (A) (A) (A) (A) (A) (A) (A) (A)
                 (A) (A) (A) (A) (A) (A) (A) (A) (A) (A) (A) (A)
                 (A) (A) (A) (A) (A) (A) (A) (A) (A) (A) (A) (A)
                 (A) (A) (A) (A) (A) (A) (A) (A) (A) (A) (A) (A)
                 (A) (A) (A) (A) (A) (A) (A) (A) (A) (A) (A) (A)
                 (A) (A) (A) (A) (A) (A) (A) (A) (A) (A) (A) (A)
                 (A) (A) (A) (A) (A) (A) (A) (A) (A) (A) (A) (A)
                 (A) (A) (A) (A) (A) (A) (A) (A) (A) (A) (A) (A)
                 (A) (A) (A) (A) (A) (A) (A) (A) (A) (A) (A) (A)
                 (A) (A) (A) (A) (A) (A) (A) (A) (A) (A) (A) (A)
                 (A) (A) (A) (A) (A) (A) (A) (A) (A) (A) (A) (A)
                 (A) (A) (A) (A) (A) (A) (A) (A) (A) (A) (A) (A)
                 (A) (A) (A) (A) (A) (A) (A) (A) (A) (A) (A) (A)
                 (A) (A) (A) (A) (A) (A) (A) (A) (A) (A) (A) (A)
                 (A) (A) (A) (A) (A) (A) (A) (A) (A) (A) (A) (A)
                 (A) (A) (A) (A) (A) (A) (A) (A) (A) (A) (A) (A)
                 (A) (A) (A) (A) (A) (A) (A) (A) (A) (A) (A) (A)
                 (A) (A) (A) (A) (A) (A) (A) (A) (A) (A) (A) (A)
                 (A) (A) (A) (A) (A) (A) (A) (A) (A) (A) (A) (A)
                 (A) (A) (A) (A) (A) (A) (A) (A) (A) (A) (A) (A)
                 (A) (A) (A) (A) (A) (A) (A) (A) (A) (A) (A) (A)
                 (A) (A) (A) (A) (A) (A) (A) (A) (A) (A) (A) (A)
                 (A) (A) (A) (A) (A) (A) (A) (A) (A) (A) (A) (A)
                 (A) (A) (A) (A) (A) (A) (A) (A) (A) (A) (A) (A)
                 (A) (A) (A) (A) (A) (A) (A) (A) (A) (A) (A) (A)
                 (A) (A) (A) (A) (A) (A) (A) (A) (A) (A) (A) (A)
                 (A) (A) (A) (A) (A) (A) (A) (A) (A) (A) (A) (A)
                 (A) (A) (A) (A) (A) (A) (A) (A) (A) (A) (A) (A)
                 (A) (A) (A) (A) (A) (A) (A) (A) (A) (A) (A) (A)
                 (A) (A) (A) (A) (A) (A) (A) (A) (A) (A) (A) (A)
                 (A) (A) (A) (A) (A) (A) (A) (A) (A) (A) (A) (A)
                 (A) (A) (A) (A) (A) (A) (A) (A) (A) (A) (A) (A)
                 (A) (A) (A) (A) (A) (A) (A) (A) (A) (A) (A) (A)
                 (A) (A) (A) (A) (A) (A) (A) (A) (A) (A) (A) (A)
                 (A) (A) (A) (A) (A) (A) (A) (A) (A) (A) (A) (A)
                 (A) (A) (A) (A) (A) (A) (A) (A) (A) (A) (A) (A)
                 (A) (A) (A) (A) (A) (A) (A) (A) (A) (A) (A) (A)
                 (A) (A) (A) (A) (A) (A) (A) (A) (A) (A) (A) (A)
                 (A) (A) (A) (A) (A) (A) (A) (A) (A) (A) (A) (A)
                 (A) (A) (A) (A) (A) (A) (A) (A) (A) (A) (A) (A)
                 (A) (A) (A) (A) (A) (A) (A) (A) (A) (A) (A) (A)
                 (A) (A) (A) (A) (A) (A) (A) (A) (A) (A) (A) (A)
                 (A) (A) (A) (A) (A) (A) (A) (A) (A) (A) (A) (A)
                 (A) (A) (A) (A) (A) (A) (A) (A) (A) (A) (A) (A)
                 (A) (A) (A) (A) (A) (A) (A) (A) (A) (A) (A) (A)
                 (A) (A) (A) (A) (A) (A) (A) (A) (A) (A) (A) (A)
                 (A) (A) (A) (A) (A) (A) (A) (A) (A) (A) (A) (A)
                 (A) (A) (A) (A) (A) (A) (A) (A) (A) (A) (A) (A)
                 (A) (A) (A) (A) (A) (A) (A) (A) (A) (A) (A) (A)
                 (A) (A) (A) (A) (A) (A) (A) (A) (A) (A) (A) (A)
                 (A) (A) (A) (A) (A) (A) (A) (A) (A) (A) (A) (A)
                 (A) (A) (A) (A) (A) (A) (A) (A) (A) (A) (A) (A)
                 (A) (A) (A) (A) (A) (A) (A) (A) (A) (A) (A) (A)
                 (A) (A) (A) (A) (A) (A) (A) (A) (A) (A) (A) (A)
                 (A) (A) (A) (A) (A) (A) (A) (A) (A)
 The electronic state is 1-A.
 Alpha  occ. eigenvalues --  -89.08292 -89.06182 -89.06180 -89.05827 -89.05826
 Alpha  occ. eigenvalues --  -24.85296 -24.85295 -24.85262 -24.85262 -19.27236
 Alpha  occ. eigenvalues --  -19.27234 -14.53233 -14.53227 -14.50259 -14.50254
 Alpha  occ. eigenvalues --  -14.46903 -14.46903 -14.46813 -14.46812 -10.42139
 Alpha  occ. eigenvalues --  -10.42138 -10.42105 -10.42104 -10.41688 -10.41686
 Alpha  occ. eigenvalues --  -10.39160 -10.39160 -10.39060 -10.39060 -10.38360
 Alpha  occ. eigenvalues --  -10.38337 -10.38014 -10.37997 -10.37115 -10.37115
 Alpha  occ. eigenvalues --  -10.37053 -10.37052 -10.36680 -10.36679 -10.36638
 Alpha  occ. eigenvalues --  -10.36638 -10.36412 -10.36410 -10.35812 -10.35811
 Alpha  occ. eigenvalues --  -10.35501 -10.35501 -10.35328 -10.35328 -10.35108
 Alpha  occ. eigenvalues --  -10.35108 -10.34956 -10.34946 -10.34421 -10.34419
 Alpha  occ. eigenvalues --  -10.34328 -10.34328 -10.34213 -10.34212 -10.34179
 Alpha  occ. eigenvalues --  -10.34175 -10.34058 -10.34057 -10.33620 -10.33610
 Alpha  occ. eigenvalues --  -10.30116 -10.30115  -8.12754  -8.11166  -8.11165
 Alpha  occ. eigenvalues --   -8.10765  -8.10764  -6.08362  -6.07851  -6.07111
 Alpha  occ. eigenvalues --   -6.06570  -6.06568  -6.06194  -6.06193  -6.06189
 Alpha  occ. eigenvalues --   -6.06189  -6.05824  -6.05824  -6.05729  -6.05727
 Alpha  occ. eigenvalues --   -6.05283  -6.05283  -1.34390  -1.34389  -1.32991
 Alpha  occ. eigenvalues --   -1.32989  -1.14980  -1.14979  -1.11525  -1.10330
 Alpha  occ. eigenvalues --   -1.06609  -1.03336  -1.03334  -1.01737  -1.01732
 Alpha  occ. eigenvalues --   -1.01629  -1.01501  -1.00970  -1.00960  -0.98455
 Alpha  occ. eigenvalues --   -0.96624  -0.96469  -0.95813  -0.95388  -0.94230
 Alpha  occ. eigenvalues --   -0.91425  -0.91187  -0.90422  -0.89176  -0.88940
 Alpha  occ. eigenvalues --   -0.88926  -0.87987  -0.87837  -0.87735  -0.85828
 Alpha  occ. eigenvalues --   -0.84802  -0.83531  -0.83294  -0.81838  -0.80001
 Alpha  occ. eigenvalues --   -0.79712  -0.79014  -0.78489  -0.78171  -0.78091
 Alpha  occ. eigenvalues --   -0.77614  -0.76622  -0.75036  -0.74455  -0.73330
 Alpha  occ. eigenvalues --   -0.71880  -0.71695  -0.71210  -0.70093  -0.69944
 Alpha  occ. eigenvalues --   -0.69104  -0.67868  -0.67421  -0.67330  -0.67124
 Alpha  occ. eigenvalues --   -0.66075  -0.65532  -0.65528  -0.64901  -0.64658
 Alpha  occ. eigenvalues --   -0.63599  -0.62588  -0.62291  -0.61297  -0.60708
 Alpha  occ. eigenvalues --   -0.60330  -0.60234  -0.59992  -0.59991  -0.59800
 Alpha  occ. eigenvalues --   -0.59571  -0.58913  -0.58380  -0.57992  -0.57224
 Alpha  occ. eigenvalues --   -0.56629  -0.56570  -0.56501  -0.56500  -0.55607
 Alpha  occ. eigenvalues --   -0.55605  -0.55256  -0.54981  -0.54928  -0.54542
 Alpha  occ. eigenvalues --   -0.54491  -0.54207  -0.54205  -0.53381  -0.52871
 Alpha  occ. eigenvalues --   -0.52858  -0.52735  -0.52558  -0.52318  -0.52034
 Alpha  occ. eigenvalues --   -0.51612  -0.51288  -0.51076  -0.50897  -0.50798
 Alpha  occ. eigenvalues --   -0.50751  -0.50347  -0.50143  -0.49970  -0.49912
 Alpha  occ. eigenvalues --   -0.49299  -0.49193  -0.48823  -0.48311  -0.48300
 Alpha  occ. eigenvalues --   -0.48046  -0.47799  -0.47676  -0.47647  -0.47503
 Alpha  occ. eigenvalues --   -0.47181  -0.47036  -0.46943  -0.46927  -0.46769
 Alpha  occ. eigenvalues --   -0.46387  -0.45872  -0.45727  -0.45260  -0.45256
 Alpha  occ. eigenvalues --   -0.45202  -0.45007  -0.44622  -0.44534  -0.43899
 Alpha  occ. eigenvalues --   -0.43866  -0.43595  -0.43395  -0.43047  -0.42668
 Alpha  occ. eigenvalues --   -0.41970  -0.41835  -0.41257  -0.39784  -0.39511
 Alpha  occ. eigenvalues --   -0.39022  -0.37791  -0.37157  -0.36636  -0.36553
 Alpha  occ. eigenvalues --   -0.36122  -0.35895  -0.35405  -0.34904  -0.33437
 Alpha  occ. eigenvalues --   -0.33390  -0.33067  -0.32539  -0.30527  -0.30016
 Alpha  occ. eigenvalues --   -0.29569  -0.25953
 Alpha virt. eigenvalues --   -0.07081  -0.06435  -0.04364  -0.03907  -0.03331
 Alpha virt. eigenvalues --    0.00625   0.00785   0.01859   0.03970   0.04794
 Alpha virt. eigenvalues --    0.05430   0.05470   0.06004   0.07062   0.07311
 Alpha virt. eigenvalues --    0.07685   0.07748   0.08056   0.08703   0.09975
 Alpha virt. eigenvalues --    0.10024   0.10191   0.10412   0.10634   0.11178
 Alpha virt. eigenvalues --    0.11489   0.12114   0.12275   0.12382   0.13606
 Alpha virt. eigenvalues --    0.13772   0.13811   0.14142   0.14581   0.14675
 Alpha virt. eigenvalues --    0.15359   0.16831   0.16988   0.17196   0.17287
 Alpha virt. eigenvalues --    0.17866   0.17903   0.18799   0.19342   0.19836
 Alpha virt. eigenvalues --    0.19957   0.20285   0.20385   0.20984   0.21126
 Alpha virt. eigenvalues --    0.21478   0.21664   0.22156   0.22169   0.22485
 Alpha virt. eigenvalues --    0.22502   0.23163   0.23274   0.23539   0.23544
 Alpha virt. eigenvalues --    0.23959   0.24060   0.24069   0.24530   0.24616
 Alpha virt. eigenvalues --    0.25487   0.25800   0.26148   0.26345   0.26435
 Alpha virt. eigenvalues --    0.27419   0.28252   0.28508   0.28724   0.29500
 Alpha virt. eigenvalues --    0.30129   0.30338   0.30362   0.31055   0.31057
 Alpha virt. eigenvalues --    0.31196   0.31280   0.31687   0.32303   0.32336
 Alpha virt. eigenvalues --    0.32843   0.32942   0.33298   0.33464   0.33524
 Alpha virt. eigenvalues --    0.34372   0.34985   0.35146   0.35563   0.35697
 Alpha virt. eigenvalues --    0.35913   0.36023   0.36266   0.37111   0.37202
 Alpha virt. eigenvalues --    0.37422   0.37964   0.38051   0.38230   0.39156
 Alpha virt. eigenvalues --    0.39557   0.39881   0.40007   0.40124   0.40207
 Alpha virt. eigenvalues --    0.40274   0.40523   0.40650   0.41740   0.42142
 Alpha virt. eigenvalues --    0.42781   0.42963   0.43428   0.44082   0.44178
 Alpha virt. eigenvalues --    0.44452   0.44573   0.44988   0.45467   0.45927
 Alpha virt. eigenvalues --    0.46048   0.46314   0.47090   0.47531   0.47649
 Alpha virt. eigenvalues --    0.47906   0.47911   0.48903   0.49525   0.49714
 Alpha virt. eigenvalues --    0.50119   0.50282   0.50333   0.50361   0.50914
 Alpha virt. eigenvalues --    0.51030   0.51207   0.51709   0.52305   0.52398
 Alpha virt. eigenvalues --    0.53041   0.53161   0.53164   0.53251   0.53908
 Alpha virt. eigenvalues --    0.54100   0.54269   0.54553   0.55019   0.55486
 Alpha virt. eigenvalues --    0.55491   0.56012   0.56314   0.56651   0.56778
 Alpha virt. eigenvalues --    0.57246   0.57508   0.57751   0.57772   0.57972
 Alpha virt. eigenvalues --    0.58029   0.58387   0.58406   0.58673   0.58787
 Alpha virt. eigenvalues --    0.58794   0.58820   0.59391   0.59535   0.59605
 Alpha virt. eigenvalues --    0.60014   0.60041   0.60757   0.60780   0.60995
 Alpha virt. eigenvalues --    0.61471   0.61497   0.61730   0.61844   0.62189
 Alpha virt. eigenvalues --    0.62512   0.62741   0.62992   0.63378   0.64331
 Alpha virt. eigenvalues --    0.64335   0.64740   0.64825   0.65359   0.65644
 Alpha virt. eigenvalues --    0.65661   0.65947   0.66415   0.66878   0.67213
 Alpha virt. eigenvalues --    0.67464   0.67545   0.68099   0.68184   0.68488
 Alpha virt. eigenvalues --    0.68758   0.68904   0.69151   0.69461   0.69724
 Alpha virt. eigenvalues --    0.69960   0.69979   0.70627   0.70702   0.70834
 Alpha virt. eigenvalues --    0.71031   0.71493   0.71674   0.71682   0.71776
 Alpha virt. eigenvalues --    0.71783   0.71851   0.72104   0.72136   0.72542
 Alpha virt. eigenvalues --    0.72794   0.73024   0.73146   0.73231   0.73469
 Alpha virt. eigenvalues --    0.73637   0.73652   0.73661   0.73947   0.74153
 Alpha virt. eigenvalues --    0.74366   0.74476   0.74507   0.74740   0.74997
 Alpha virt. eigenvalues --    0.75086   0.75266   0.75560   0.75663   0.75896
 Alpha virt. eigenvalues --    0.76088   0.76240   0.76543   0.76869   0.77103
 Alpha virt. eigenvalues --    0.77620   0.77773   0.77827   0.78084   0.78093
 Alpha virt. eigenvalues --    0.78300   0.78499   0.78790   0.78842   0.79297
 Alpha virt. eigenvalues --    0.79382   0.79452   0.79896   0.80032   0.80204
 Alpha virt. eigenvalues --    0.80452   0.80981   0.81004   0.81172   0.81649
 Alpha virt. eigenvalues --    0.81655   0.81872   0.82352   0.82448   0.82667
 Alpha virt. eigenvalues --    0.83149   0.83429   0.83867   0.84149   0.84202
 Alpha virt. eigenvalues --    0.84563   0.84794   0.84922   0.85280   0.85759
 Alpha virt. eigenvalues --    0.85865   0.85951   0.86365   0.86382   0.87147
 Alpha virt. eigenvalues --    0.87364   0.87484   0.87877   0.88574   0.88591
 Alpha virt. eigenvalues --    0.88761   0.88996   0.89056   0.89692   0.90177
 Alpha virt. eigenvalues --    0.90487   0.90837   0.91139   0.91554   0.91727
 Alpha virt. eigenvalues --    0.92963   0.93342   0.93659   0.93669   0.94062
 Alpha virt. eigenvalues --    0.94435   0.94584   0.94842   0.94948   0.95213
 Alpha virt. eigenvalues --    0.95506   0.96083   0.96234   0.96668   0.97063
 Alpha virt. eigenvalues --    0.97695   0.98131   0.98195   0.98411   0.98749
 Alpha virt. eigenvalues --    0.98764   0.99638   0.99752   0.99781   1.01046
 Alpha virt. eigenvalues --    1.01728   1.01735   1.02105   1.02705   1.03005
 Alpha virt. eigenvalues --    1.03542   1.03904   1.03997   1.04763   1.05344
 Alpha virt. eigenvalues --    1.05653   1.06231   1.06597   1.06951   1.07149
 Alpha virt. eigenvalues --    1.07717   1.07756   1.08335   1.08437   1.09826
 Alpha virt. eigenvalues --    1.10369   1.10702   1.11219   1.11664   1.12463
 Alpha virt. eigenvalues --    1.14218   1.14243   1.14396   1.14679   1.15045
 Alpha virt. eigenvalues --    1.15999   1.16843   1.17155   1.17427   1.17742
 Alpha virt. eigenvalues --    1.17965   1.18482   1.18642   1.19319   1.19334
 Alpha virt. eigenvalues --    1.20102   1.20329   1.20664   1.21638   1.21917
 Alpha virt. eigenvalues --    1.22232   1.22497   1.22528   1.24038   1.24128
 Alpha virt. eigenvalues --    1.24422   1.24458   1.24935   1.25018   1.25078
 Alpha virt. eigenvalues --    1.25242   1.25860   1.26534   1.26861   1.27166
 Alpha virt. eigenvalues --    1.27285   1.27766   1.27845   1.28181   1.28398
 Alpha virt. eigenvalues --    1.29088   1.29180   1.29410   1.30346   1.30599
 Alpha virt. eigenvalues --    1.31038   1.31389   1.31827   1.31904   1.32117
 Alpha virt. eigenvalues --    1.32351   1.34934   1.35143   1.35346   1.35553
 Alpha virt. eigenvalues --    1.35591   1.36380   1.36689   1.36785   1.37048
 Alpha virt. eigenvalues --    1.37803   1.37817   1.38102   1.39908   1.40090
 Alpha virt. eigenvalues --    1.40431   1.40585   1.41399   1.41692   1.41733
 Alpha virt. eigenvalues --    1.42168   1.42191   1.42963   1.42965   1.43544
 Alpha virt. eigenvalues --    1.43575   1.44937   1.44972   1.45217   1.45876
 Alpha virt. eigenvalues --    1.46047   1.48391   1.48505   1.48777   1.48854
 Alpha virt. eigenvalues --    1.49854   1.50716   1.51194   1.51527   1.52352
 Alpha virt. eigenvalues --    1.52663   1.52753   1.52920   1.53434   1.53785
 Alpha virt. eigenvalues --    1.55368   1.55717   1.55876   1.56174   1.56437
 Alpha virt. eigenvalues --    1.56742   1.56857   1.56900   1.57277   1.57691
 Alpha virt. eigenvalues --    1.57782   1.59106   1.59118   1.59931   1.61201
 Alpha virt. eigenvalues --    1.61406   1.61564   1.62203   1.63723   1.64560
 Alpha virt. eigenvalues --    1.65231   1.65717   1.65785   1.66050   1.66295
 Alpha virt. eigenvalues --    1.66420   1.67052   1.67061   1.68415   1.68461
 Alpha virt. eigenvalues --    1.69184   1.69189   1.69447   1.69475   1.71712
 Alpha virt. eigenvalues --    1.71723   1.72761   1.72892   1.75373   1.75534
 Alpha virt. eigenvalues --    1.75887   1.76374   1.76477   1.76545   1.77483
 Alpha virt. eigenvalues --    1.77700   1.78921   1.78943   1.79199   1.79720
 Alpha virt. eigenvalues --    1.79778   1.81049   1.81072   1.81223   1.81684
 Alpha virt. eigenvalues --    1.81771   1.82003   1.82045   1.82407   1.82451
 Alpha virt. eigenvalues --    1.83164   1.83814   1.84255   1.84313   1.84669
 Alpha virt. eigenvalues --    1.84677   1.85847   1.85959   1.86230   1.86445
 Alpha virt. eigenvalues --    1.86979   1.87117   1.87671   1.87857   1.88042
 Alpha virt. eigenvalues --    1.88067   1.88348   1.89044   1.89890   1.90112
[...]
 Alpha virt. eigenvalues --    0.57734   0.57898   0.58110   0.58505   0.58706
 Alpha virt. eigenvalues --    0.58770   0.58870   0.58999   0.59162   0.59350
 Alpha virt. eigenvalues --    0.59401   0.59496   0.59766   0.60168   0.60269
 Alpha virt. eigenvalues --    0.60892   0.61047   0.61334   0.61495   0.61733
 Alpha virt. eigenvalues --    0.62006   0.62188   0.62365   0.62654   0.62939
 Alpha virt. eigenvalues --    0.63079   0.63259   0.63289   0.63782   0.64745
 Alpha virt. eigenvalues --    0.65032   0.65267   0.65328   0.65749   0.66145
 Alpha virt. eigenvalues --    0.66226   0.66470   0.66670   0.66947   0.67948
 Alpha virt. eigenvalues --    0.68040   0.68349   0.68660   0.68948   0.68982
 Alpha virt. eigenvalues --    0.69266   0.69373   0.69857   0.70028   0.70106
 Alpha virt. eigenvalues --    0.70582   0.70999   0.71137   0.71313   0.71473
 Alpha virt. eigenvalues --    0.71980   0.71996   0.72157   0.72171   0.72339
 Alpha virt. eigenvalues --    0.72412   0.72662   0.72880   0.72882   0.73369
 Alpha virt. eigenvalues --    0.73370   0.73604   0.73635   0.73893   0.74111
 Alpha virt. eigenvalues --    0.74502   0.74550   0.74651   0.74757   0.74947
 Alpha virt. eigenvalues --    0.74952   0.75279   0.75349   0.75525   0.75627
 Alpha virt. eigenvalues --    0.75896   0.76582   0.76586   0.76683   0.76727
 Alpha virt. eigenvalues --    0.76931   0.77030   0.77268   0.77546   0.77865
 Alpha virt. eigenvalues --    0.78331   0.78341   0.78793   0.79163   0.79448
 Alpha virt. eigenvalues --    0.79579   0.79701   0.80041   0.80187   0.80266
 Alpha virt. eigenvalues --    0.80489   0.80957   0.81076   0.81140   0.81287
 Alpha virt. eigenvalues --    0.81531   0.82051   0.82397   0.82641   0.82870
 Alpha virt. eigenvalues --    0.83185   0.83383   0.83463   0.83690   0.83835
 Alpha virt. eigenvalues --    0.84121   0.84257   0.84794   0.85137   0.85431
 Alpha virt. eigenvalues --    0.85475   0.85967   0.86190   0.86335   0.86806
 Alpha virt. eigenvalues --    0.86859   0.86991   0.87404   0.87795   0.87809
 Alpha virt. eigenvalues --    0.88019   0.88564   0.88602   0.89187   0.89439
 Alpha virt. eigenvalues --    0.89777   0.89802   0.90491   0.90621   0.91399
 Alpha virt. eigenvalues --    0.91470   0.91534   0.92672   0.92802   0.93243
 Alpha virt. eigenvalues --    0.93733   0.93757   0.94051   0.94149   0.94420
 Alpha virt. eigenvalues --    0.94821   0.95082   0.95216   0.95329   0.95529
 Alpha virt. eigenvalues --    0.96043   0.96786   0.96925   0.97487   0.97594
 Alpha virt. eigenvalues --    0.97997   0.98760   0.99081   0.99245   0.99357
 Alpha virt. eigenvalues --    0.99361   1.00417   1.00770   1.01120   1.02396
 Alpha virt. eigenvalues --    1.03151   1.03212   1.03762   1.04088   1.04335
 Alpha virt. eigenvalues --    1.04605   1.05454   1.05467   1.05887   1.06355
 Alpha virt. eigenvalues --    1.06821   1.07432   1.07527   1.07936   1.08306
 Alpha virt. eigenvalues --    1.08548   1.09467   1.09504   1.10650   1.11240
 Alpha virt. eigenvalues --    1.11394   1.11776   1.13139   1.13316   1.14419
 Alpha virt. eigenvalues --    1.14734   1.14749   1.15370   1.15415   1.16686
 Alpha virt. eigenvalues --    1.16960   1.17410   1.17759   1.17810   1.18724
 Alpha virt. eigenvalues --    1.19152   1.19297   1.19432   1.19660   1.19847
 Alpha virt. eigenvalues --    1.20765   1.20853   1.21476   1.22041   1.22996
 Alpha virt. eigenvalues --    1.23227   1.23536   1.24056   1.24563   1.24605
 Alpha virt. eigenvalues --    1.25194   1.25460   1.25566   1.25933   1.26251
 Alpha virt. eigenvalues --    1.26691   1.27092   1.27117   1.27991   1.28025
 Alpha virt. eigenvalues --    1.28466   1.28652   1.28784   1.29208   1.29228
 Alpha virt. eigenvalues --    1.29624   1.29857   1.30040   1.30671   1.31187
 Alpha virt. eigenvalues --    1.31700   1.32128   1.32370   1.33118   1.33257
 Alpha virt. eigenvalues --    1.34118   1.35392   1.35412   1.35769   1.35916
 Alpha virt. eigenvalues --    1.36436   1.36726   1.36827   1.36879   1.37525
 Alpha virt. eigenvalues --    1.37676   1.38513   1.39289   1.39567   1.40282
 Alpha virt. eigenvalues --    1.40455   1.41278   1.41725   1.42021   1.42079
 Alpha virt. eigenvalues --    1.42293   1.42982   1.43145   1.43556   1.43643
 Alpha virt. eigenvalues --    1.43963   1.44820   1.45481   1.46178   1.46378
 Alpha virt. eigenvalues --    1.47115   1.48111   1.48133   1.49792   1.50311
 Alpha virt. eigenvalues --    1.50483   1.51514   1.51584   1.52738   1.52854
 Alpha virt. eigenvalues --    1.53007   1.53293   1.53433   1.54208   1.54373
 Alpha virt. eigenvalues --    1.56258   1.56390   1.56462   1.56696   1.56704
 Alpha virt. eigenvalues --    1.57327   1.57768   1.57926   1.58358   1.58859
 Alpha virt. eigenvalues --    1.59354   1.59534   1.60641   1.60692   1.61554
 Alpha virt. eigenvalues --    1.62024   1.62701   1.62955   1.64748   1.64822
 Alpha virt. eigenvalues --    1.65946   1.66196   1.66301   1.66609   1.66987
 Alpha virt. eigenvalues --    1.67127   1.67287   1.67289   1.68286   1.68542
 Alpha virt. eigenvalues --    1.69431   1.69477   1.70205   1.70263   1.72252
 Alpha virt. eigenvalues --    1.72345   1.73590   1.73810   1.76011   1.76384
 Alpha virt. eigenvalues --    1.76685   1.77098   1.77373   1.77687   1.78563
 Alpha virt. eigenvalues --    1.78736   1.79671   1.79672   1.80516   1.80768
 Alpha virt. eigenvalues --    1.81647   1.81970   1.82338   1.82467   1.82552
 Alpha virt. eigenvalues --    1.82776   1.82893   1.83111   1.83228   1.83350
 Alpha virt. eigenvalues --    1.83921   1.84715   1.85061   1.85288   1.85312
 Alpha virt. eigenvalues --    1.85486   1.86625   1.87381   1.87601   1.87967
 Alpha virt. eigenvalues --    1.88071   1.88328   1.88711   1.88762   1.89035
 Alpha virt. eigenvalues --    1.89039   1.89522   1.89585   1.90358   1.90953
 Alpha virt. eigenvalues --    1.91588   1.91637   1.92969   1.93079   1.93235
 Alpha virt. eigenvalues --    1.93257   1.94224   1.94517   1.95191   1.95259
 Alpha virt. eigenvalues --    1.95598   1.95855   1.96287   1.96583   1.97540
 Alpha virt. eigenvalues --    1.97712   1.97761   1.98114   1.98678   1.98926
 Alpha virt. eigenvalues --    1.99374   1.99523   2.00041   2.00458   2.01042
 Alpha virt. eigenvalues --    2.01268   2.02766   2.02815   2.03612   2.03798
 Alpha virt. eigenvalues --    2.03837   2.03902   2.04325   2.04419   2.05320
 Alpha virt. eigenvalues --    2.05350   2.05447   2.06786   2.07449   2.08035
 Alpha virt. eigenvalues --    2.08077   2.08735   2.08816   2.10012   2.10042
 Alpha virt. eigenvalues --    2.10770   2.10968   2.13234   2.13277   2.14748
 Alpha virt. eigenvalues --    2.14830   2.14921   2.15597   2.15764   2.16475
 Alpha virt. eigenvalues --    2.16498   2.17389   2.18190   2.18360   2.18782
 Alpha virt. eigenvalues --    2.19211   2.19599   2.19682   2.20195   2.20780
 Alpha virt. eigenvalues --    2.20846   2.21871   2.22295   2.22370   2.23555
 Alpha virt. eigenvalues --    2.23669   2.23975   2.24510   2.24913   2.25707
 Alpha virt. eigenvalues --    2.25731   2.26095   2.26242   2.26732   2.26895
 Alpha virt. eigenvalues --    2.27620   2.28004   2.28300   2.29061   2.29534
 Alpha virt. eigenvalues --    2.30317   2.31398   2.31421   2.31511   2.31925
 Alpha virt. eigenvalues --    2.32084   2.32215   2.32451   2.32787   2.33029
 Alpha virt. eigenvalues --    2.33050   2.33612   2.33667   2.34237   2.34409
 Alpha virt. eigenvalues --    2.34414   2.34447   2.34678   2.34684   2.35797
 Alpha virt. eigenvalues --    2.36575   2.36581   2.37311   2.37352   2.38846
 Alpha virt. eigenvalues --    2.39219   2.39481   2.39565   2.40236   2.40839
 Alpha virt. eigenvalues --    2.40955   2.42109   2.43286   2.43969   2.43986
 Alpha virt. eigenvalues --    2.45453   2.45942   2.46584   2.46625   2.48127
 Alpha virt. eigenvalues --    2.48776   2.48861   2.49509   2.49876   2.51457
 Alpha virt. eigenvalues --    2.51605   2.52225   2.53477   2.53618   2.54764
 Alpha virt. eigenvalues --    2.54795   2.55329   2.55435   2.56600   2.59037
 Alpha virt. eigenvalues --    2.59641   2.59911   2.60577   2.62176   2.62379
 Alpha virt. eigenvalues --    2.62613   2.63571   2.63833   2.64725   2.64743
 Alpha virt. eigenvalues --    2.65253   2.65383   2.66504   2.66769   2.66810
 Alpha virt. eigenvalues --    2.67358   2.69097   2.69206   2.69256   2.69326
 Alpha virt. eigenvalues --    2.69795   2.70511   2.71470   2.72535   2.73579
 Alpha virt. eigenvalues --    2.74152   2.75318   2.76183   2.76452   2.76884
 Alpha virt. eigenvalues --    2.77627   2.77937   2.78796   2.79491   2.79598
 Alpha virt. eigenvalues --    2.79634   2.80097   2.80290   2.81254   2.81718
 Alpha virt. eigenvalues --    2.82290   2.82874   2.83177   2.83223   2.85445
 Alpha virt. eigenvalues --    2.86366   2.86673   2.87589   2.89768   2.90328
 Alpha virt. eigenvalues --    2.90663   2.90951   2.91532   2.93134   2.94103
 Alpha virt. eigenvalues --    2.95594   2.95621   2.97252   2.97275   2.97686
 Alpha virt. eigenvalues --    2.99436   3.01894   3.02557   3.02920   3.03467
 Alpha virt. eigenvalues --    3.03722   3.03866   3.03957   3.04597   3.05236
 Alpha virt. eigenvalues --    3.05258   3.06446   3.07140   3.07384   3.08657
 Alpha virt. eigenvalues --    3.09422   3.09436   3.10428   3.11454   3.12560
 Alpha virt. eigenvalues --    3.13075   3.13075   3.14232   3.15399   3.15549
 Alpha virt. eigenvalues --    3.15551   3.16321   3.18381   3.18399   3.18475
 Alpha virt. eigenvalues --    3.18485   3.18958   3.19418   3.19766   3.22060
 Alpha virt. eigenvalues --    3.23624   3.23625   3.28992   3.29514   3.32317
 Alpha virt. eigenvalues --    3.33278   3.34862   3.34867   3.35236   3.35236
 Alpha virt. eigenvalues --    3.35795   3.37772   3.42351   3.43346   3.44066
 Alpha virt. eigenvalues --    3.44067   3.45555   3.45560   3.48180   3.48180
 Alpha virt. eigenvalues --    3.53187   3.55246   3.55248   3.58370   3.58372
 Alpha virt. eigenvalues --    3.64872   3.68215   3.68221   3.71637   3.71639
 Alpha virt. eigenvalues --    3.76359   3.76360   3.87803   3.87803   4.03620
 Alpha virt. eigenvalues --    4.03620
          Condensed to atoms (all electrons):
 Mulliken charges:
               1
     1  H    0.079560
     2  H    0.064426
     3  C   -0.196048
     4  H    0.068240
     5  O   -0.242672
     6  H    0.078276
     7  C   -0.332650
     8  H    0.094772
     9  H    0.094915
    10  H    0.094915
    11  C    0.047291
    12  F   -0.189337
    13  C    0.249548
    14  C   -0.088341
    15  N    0.017822
    16  H    0.069631
    17  H    0.060967
    18  H    0.094773
    19  C    0.249286
    20  F   -0.189335
    21  C   -0.037463
    22  C   -0.059136
    23  C   -0.096524
    24  H    0.060968
    25  H    0.069631
    26  C    0.263958
    27  C    0.234829
    28  S    0.174477
    29  C    0.049158
    30  C   -0.054978
    31  C   -0.332657
    32  C   -0.088343
    33  O   -0.242667
    34  S    0.175532
    35  C    0.249545
    36  C   -0.072673
    37  F   -0.189363
    38  C    0.108826
    39  C   -0.107222
    40  S    0.174476
    41  C    0.065970
    42  C   -0.093701
    43  S    0.175538
    44  C   -0.107224
    45  C    0.108831
    46  C   -0.054970
    47  C    0.049161
    48  N    0.024758
    49  C   -0.096524
    50  C    0.026553
    51  C    0.026550
    52  C   -0.072674
    53  F   -0.189361
    54  C   -0.143477
    55  N   -0.332561
    56  H    0.079552
    57  N   -0.332562
    58  C   -0.099328
    59  H    0.064419
    60  H    0.068246
    61  C    0.029081
    62  C   -0.117181
    63  C   -0.196059
    64  C   -0.059128
    65  C   -0.099328
    66  C    0.064542
    67  S    0.456526
    68  C    0.064549
    69  C    0.047293
    70  C   -0.143470
    71  C   -0.093706
    72  C   -0.037462
    73  N   -0.261887
    74  C    0.234831
    75  C    0.029080
    76  C   -0.117150
    77  H    0.093833
    78  N   -0.261887
    79  C    0.263962
    80  C    0.065971
    81  C    0.249287
    82  H    0.078276
    83  N    0.017823
    84  N    0.024758
    85  H    0.093836
 Sum of Mulliken charges =  -0.00000
 Mulliken charges with hydrogens summed into heavy atoms:
               1
     3  C   -0.196048
     5  O   -0.242672
     7  C   -0.332650
    11  C    0.259518
    12  F   -0.189337
    13  C    0.249548
    14  C   -0.027374
    15  N    0.017822
    19  C    0.249286
    20  F   -0.189335
    21  C   -0.037463
    22  C   -0.059136
    23  C   -0.026894
    26  C    0.263958
    27  C    0.234829
    28  S    0.174477
    29  C    0.049158
    30  C   -0.054978
    31  C   -0.332657
    32  C   -0.027375
    33  O   -0.242667
    34  S    0.175532
    35  C    0.249545
    36  C   -0.072673
    37  F   -0.189363
    38  C    0.108826
    39  C   -0.107222
    40  S    0.174476
    41  C    0.333934
    42  C   -0.093701
    43  S    0.175538
    44  C   -0.107224
    45  C    0.108831
    46  C   -0.054970
    47  C    0.049161
    48  N    0.024758
    49  C   -0.026893
    50  C    0.026553
    51  C    0.026550
    52  C   -0.072674
    53  F   -0.189361
    54  C   -0.143477
    55  N   -0.332561
    57  N   -0.332562
    58  C   -0.099328
    61  C    0.122916
    62  C   -0.117181
    63  C   -0.196059
    64  C   -0.059128
    65  C   -0.099328
    66  C    0.064542
    67  S    0.456526
    68  C    0.064549
    69  C    0.259511
    70  C   -0.143470
    71  C   -0.093706
    72  C   -0.037462
    73  N   -0.261887
    74  C    0.234831
    75  C    0.122913
    76  C   -0.117150
    78  N   -0.261887
    79  C    0.263962
    80  C    0.333934
    81  C    0.249287
    83  N    0.017823
    84  N    0.024758
 Electronic spatial extent (au):  <R**2>=         138862.7246
 Charge=              0.0000 electrons
 Dipole moment (field-independent basis, Debye):
    X=             -0.0007    Y=             -1.3849    Z=              0.0001  Tot=              1.3849
 Quadrupole moment (field-independent basis, Debye-Ang):
   XX=           -526.6690   YY=           -454.0210   ZZ=           -454.7183
   XY=             -0.0041   XZ=             68.1737   YZ=              0.0020
 Traceless Quadrupole moment (field-independent basis, Debye-Ang):
   XX=            -48.1996   YY=             24.4484   ZZ=             23.7511
   XY=             -0.0041   XZ=             68.1737   YZ=              0.0020
 Octapole moment (field-independent basis, Debye-Ang**2):
  XXX=             -0.1309  YYY=            131.9123  ZZZ=              0.0628  XYY=              0.0582
  XXY=           1098.3914  XXZ=              0.0826  XZZ=             -0.1112  YZZ=            158.0482
  YYZ=             -0.0243  XYZ=           -422.1921
 Hexadecapole moment (field-independent basis, Debye-Ang**3):
 XXXX=        -201415.8825 YYYY=         -14118.6693 ZZZZ=          -5745.8789 XXXY=              0.2901
 XXXZ=           8028.9969 YYYX=             -0.6085 YYYZ=              0.0946 ZZZX=           2570.0454
 ZZZY=             -0.1271 XXYY=         -35681.4508 XXZZ=         -33323.7058 YYZZ=          -3615.8510
 XXYZ=              0.1311 YYXZ=           2094.5321 ZZXY=              0.1354
 N-N= 9.575125735524D+03 E-N=-3.045037813099D+04  KE= 4.784040354217D+03
 1\1\GINC-NODE008\FOpt\RwB97XD\def2SVP\C48H18F4N8O2S5\PSYCHE\07-Feb-202
 0\0\\# wB97XD/Def2SVP Opt # SCRF=(SMD,Solvent=Water) # Integral=(Grid=
 UltraFineGrid)\\Geometry optimisation, Mol: A6\\0,1\H,-6.6000735489,5.
 8595656653,2.3775763995\H,-5.7499595654,7.3778109513,2.0199215593\C,-3
 .3855671723,6.0226988909,2.4090101468\H,-6.2455572139,6.297275071,0.68
 87164583\O,1.9927191632,-5.6575238636,-5.9460150608\H,1.377313915,-0.4
 115241317,-1.8605401311\C,5.4777376828,-7.6903837158,-3.231346528\H,0.
 1533465426,2.2711598674,0.5057386335\H,-0.3461360461,0.7054886298,1.23
 30077839\H,0.4626835893,0.9670346812,-1.2539007719\C,-5.8550544335,6.3
 280400432,1.7172879743\F,6.8341735852,-9.0625041496,-8.3891610921\C,-5
 .5640539793,10.1392848561,7.7877327525\C,-4.6312779967,10.3175089211,6
 .7781026962\N,-2.4160781374,12.4611145293,5.2467579544\H,-6.9174447454
 ,7.1178690318,6.9483288559\H,-4.0240160657,11.2207461616,6.7947555148\
 H,1.160448075,-0.2183143291,-0.0972708441\C,4.8293387195,-7.8603230773
 ,-8.4701697209\F,-5.7002948635,11.0594385779,8.7325797708\C,-3.0247875
 826,3.8868316964,1.1918635138\C,-4.5577803097,5.5943845089,1.787196820
 1\C,3.8195175016,-7.149696013,-7.8437535868\H,6.8371360075,-8.69067354
 05,-5.8489359869\H,2.9930644721,-6.7288326768,-8.4186441924\C,-3.66016
 73243,9.1942690774,4.6157991165\C,-5.040449768,7.2532211304,4.77448972
 19\S,-1.9613878237,-4.0476670474,-2.8548479759\C,4.9651732805,-7.53923
 56466,-5.7158417952\C,3.9107237241,-7.0046057663,-6.4666014002\C,-2.83
 11927319,10.1668831495,4.1176939549\C,5.9800448739,-8.2527882728,-6.35
 73983525\O,-5.5477898687,6.163535257,4.6083190419\S,2.1089215057,-3.28
 9215036,-2.1233943146\C,5.8925916455,-8.3985216523,-7.7330090198\C,-2.
 6207825077,11.4278470218,4.7611935251\F,4.81601645,-8.0462375687,-9.78
 17830203\C,-1.8506064023,-0.4637386281,-1.075669629\C,-2.6951448984,-1
 .4446750263,-1.6465330502\S,-5.3903077231,3.3477609623,0.1554460037\C,
 0.6801395855,-0.0909711636,-1.0755941758\C,-2.1338739558,10.0522637893
 ,2.871764773\S,-2.0211277324,4.9526525491,2.0921079114\C,-3.8001618067
 ,1.0167991335,-0.7456719303\C,-2.4310464333,0.7390686402,-0.5226160131
 \C,-5.3461373652,8.1843411215,5.888964247\C,-4.5238717305,9.3153436047
 ,5.8112291136\N,-1.5636526654,10.027097804,1.8617251734\C,-6.281819045
 7,8.0033473176,6.897756407\C,-4.1000683734,-1.2070733824,-1.8035096184
 \C,-4.6493279521,0.0631466155,-1.3971061352\C,6.6367269586,-8.51616031
 5,-3.3837822013\F,-7.2517882963,8.9087859045,8.8450869875\C,-0.2124243
 945,-4.1784650601,-2.7991063781\N,-5.9411911854,0.1800954641,-1.639614
 0389\H,-0.1251876046,-6.3606480144,-4.8521761632\N,-4.9906306445,-2.01
 72983218,-2.3437248636\C,-1.8543463734,-2.4985675618,-2.0705841952\H,0
 .9834896736,-7.2565114439,-3.792045594\H,-0.6619981788,-6.8562013601,-
 3.2286440649\C,-3.1140440439,7.2346463837,3.125239075\C,-3.9271477895,
 7.8846062774,4.0111073246\C,1.9917346711,-4.8299952271,-2.9715773415\C
 ,0.6731326145,-5.19291637,-3.2431497856\C,-4.0652519201,2.2535842225,-
 0.1151658037\C,-2.8815004646,2.6611323388,0.4893484529\S,-6.4240954604
 ,-1.2229840037,-2.3353156487\C,-0.5493244986,-2.1155125522,-1.78250444
 7\C,0.198574767,-6.4895092909,-3.808590233\C,-4.329434084,4.3711601739
 ,1.1074329093\C,5.128457474,-7.4654962978,-1.8605171116\C,0.4040796628
 ,-3.0838439977,-2.194504754\N,-0.5400515642,-0.8743476132,-1.195441378
 9\C,2.9707302421,-6.2752501352,-5.5794949202\C,3.2060175675,-5.5698494
 15,-3.1549634715\C,3.549288681,-6.3690545728,-4.2093673948\H,3.9528767
 021,-5.4350164879,-2.3656489925\N,-1.8918692983,1.7372812631,0.2605576
 365\C,4.7462750834,-7.2134691299,-4.2890741068\C,-0.6525517813,1.73523
 22849,1.0227844362\C,-6.3820417566,9.0032577965,7.8502584078\H,-0.8392
 341947,2.2179671258,1.9908036726\N,7.5823058552,-9.1838799195,-3.45691
 66388\N,4.8834626442,-7.3373193076,-0.733789908\H,-2.1159586136,7.6542
 625936,2.961717055\\Version=ES64L-G16RevA.03\State=1-A\HF=-4814.993263
 4\RMSD=8.383e-09\RMSF=4.055e-06\Dipole=0.49128,0.1563627,0.1763192\Qua
 drupole=13.0073187,-58.0701089,45.0627901,25.6887299,-8.3432404,-4.085
 4183\PG=C01 [X(C48H18F4N8O2S5)]\\@


 I think that all right-thinking people in this
 country are sick and tired of being told that
 ordinary, decent people are fed up in this country
 with being sick and tired.  I'm certainly not!
 But I'm sick and tired of being told that I am!
                               -- Monty Python
 Job cpu time:       2 days 10 hours 22 minutes 13.9 seconds.
 Elapsed time:       0 days  1 hours 34 minutes 54.3 seconds.
 File lengths (MBytes):  RWF=   1603 Int=      0 D2E=      0 Chk=     90 Scr=      1
 Normal termination of Gaussian 16 at Fri Feb  7 02:57:48 2020.
