 Entering Gaussian System, Link 0=g16
 Initial command:
 /opt/apps/chemistry/Gaussian/g16/l1.exe "/tmp/Gau-178641.inp" -scrdir="/tmp/"
 Entering Link 1 = /opt/apps/chemistry/Gaussian/g16/l1.exe PID=    178642.
  
 Copyright (c) 1988,1990,1992,1993,1995,1998,2003,2009,2016,
            Gaussian, Inc.  All Rights Reserved.
  
 This is part of the Gaussian(R) 16 program.  It is based on
 the Gaussian(R) 09 system (copyright 2009, Gaussian, Inc.),
 the Gaussian(R) 03 system (copyright 2003, Gaussian, Inc.),
 the Gaussian(R) 98 system (copyright 1998, Gaussian, Inc.),
 the Gaussian(R) 94 system (copyright 1995, Gaussian, Inc.),
 the Gaussian 92(TM) system (copyright 1992, Gaussian, Inc.),
 the Gaussian 90(TM) system (copyright 1990, Gaussian, Inc.),
 the Gaussian 88(TM) system (copyright 1988, Gaussian, Inc.),
 the Gaussian 86(TM) system (copyright 1986, Carnegie Mellon
 University), and the Gaussian 82(TM) system (copyright 1983,
 Carnegie Mellon University). Gaussian is a federally registered
 trademark of Gaussian, Inc.
  
 This software contains proprietary and confidential information,
 including trade secrets, belonging to Gaussian, Inc.
  
 This software is provided under written license and may be
 used, copied, transmitted, or stored only in accord with that
 written license.
  
 The following legend is applicable only to US Government
 contracts under FAR:
  
                    RESTRICTED RIGHTS LEGEND
  
 Use, reproduction and disclosure by the US Government is
 subject to restrictions as set forth in subparagraphs (a)
 and (c) of the Commercial Computer Software - Restricted
 Rights clause in FAR 52.227-19.
  
 Gaussian, Inc.
 340 Quinnipiac St., Bldg. 40, Wallingford CT 06492
  
  
 ---------------------------------------------------------------
 Warning -- This program may not be used in any manner that
 competes with the business of Gaussian, Inc. or will provide
 assistance to any competitor of Gaussian, Inc.  The licensee
 of this program is prohibited from giving any competitor of
 Gaussian, Inc. access to this program.  By using this program,
 the user acknowledges that Gaussian, Inc. is engaged in the
 business of creating and licensing software in the field of
 computational chemistry and represents and warrants to the
 licensee that it is not a competitor of Gaussian, Inc. and that
 it will not use this program in any manner prohibited above.
 ---------------------------------------------------------------
  

 Cite this work as:
 Gaussian 16, Revision A.03,
 M. J. Frisch, G. W. Trucks, H. B. Schlegel, G. E. Scuseria, 
 M. A. Robb, J. R. Cheeseman, G. Scalmani, V. Barone, 
 G. A. Petersson, H. Nakatsuji, X. Li, M. Caricato, A. V. Marenich, 
 J. Bloino, B. G. Janesko, R. Gomperts, B. Mennucci, H. P. Hratchian, 
 J. V. Ortiz, A. F. Izmaylov, J. L. Sonnenberg, D. Williams-Young, 
 F. Ding, F. Lipparini, F. Egidi, J. Goings, B. Peng, A. Petrone, 
 T. Henderson, D. Ranasinghe, V. G. Zakrzewski, J. Gao, N. Rega, 
 G. Zheng, W. Liang, M. Hada, M. Ehara, K. Toyota, R. Fukuda, 
 J. Hasegawa, M. Ishida, T. Nakajima, Y. Honda, O. Kitao, H. Nakai, 
 T. Vreven, K. Throssell, J. A. Montgomery, Jr., J. E. Peralta, 
 F. Ogliaro, M. J. Bearpark, J. J. Heyd, E. N. Brothers, K. N. Kudin, 
 V. N. Staroverov, T. A. Keith, R. Kobayashi, J. Normand, 
 K. Raghavachari, A. P. Rendell, J. C. Burant, S. S. Iyengar, 
 J. Tomasi, M. Cossi, J. M. Millam, M. Klene, C. Adamo, R. Cammi, 
 J. W. Ochterski, R. L. Martin, K. Morokuma, O. Farkas, 
 J. B. Foresman, and D. J. Fox, Gaussian, Inc., Wallingford CT, 2016.
 
 ******************************************
 Gaussian 16:  ES64L-G16RevA.03 25-Dec-2016
                 7-Feb-2020 
 ******************************************
 %mem=360GB
 %nprocshared=40
 Will use up to   40 processors via shared memory.
 %Chk=/users/psyche/volatile/gaussian/nanohybrid/chk/A7.chk
 ----------------------------------------------------------------------
 # wB97XD/Def2SVP Opt # SCRF=(SMD,Solvent=Water) # Integral=(Grid=Ultra
 FineGrid)
 ----------------------------------------------------------------------
 1/18=20,19=15,26=6,38=1/1,3;
 2/9=110,12=2,17=6,18=5,40=1/2;
 3/5=43,7=101,11=2,25=1,30=1,70=32201,71=1,72=1,74=-58,75=-5/1,2,3;
 4//1;
 5/5=2,38=5,53=1/2;
 6/7=2,8=2,9=2,10=2,28=1/1;
 7//1,2,3,16;
 1/18=20,19=15,26=6/3(2);
 2/9=110/2;
 99//99;
 2/9=110/2;
 3/5=43,7=101,11=2,25=1,30=1,70=32205,71=1,72=1,74=-58,75=-5/1,2,3;
 4/5=5,16=3,69=1/1;
 5/5=2,38=5,53=1/2;
 7//1,2,3,16;
 1/18=20,19=15,26=6/3(-5);
 2/9=110/2;
 6/7=2,8=2,9=2,10=2,19=2,28=1/1;
 99/9=1/99;
 ------------------------------
 Geometry optimisation, Mol: A7
 ------------------------------
 Symbolic Z-matrix:
 Charge =  0 Multiplicity = 1
 C                     6.12542   2.65723   6.6236 
 H                    -7.23324  -2.4934   -6.62961 
 C                    -0.17702   1.35916  -2.51044 
 C                     5.36509   2.13675   5.56039 
 C                     0.06113  -0.70842   1.27213 
 H                     6.67201  -0.97292   4.58763 
 C                    -1.68451  -0.33078  -3.39736 
 H                     7.51487   1.00493   3.02536 
 H                     5.49071  -0.61508   5.84468 
 H                     7.16113  -0.08347   6.02307 
 C                    -1.94549  -3.82819  -6.29766 
 C                    -5.60213  -3.58574  -7.50198 
 C                    -0.80356  -0.52249  -1.08069 
 C                     1.64997   0.33931   3.40737 
 N                    -3.21494  -2.06488  -4.31202 
 C                    -0.7515   -1.2432    0.16301 
 C                    -4.04301  -2.59249  -5.4187 
 C                     2.30816   2.88971   0.7531 
 C                    -1.60577  -1.03628  -2.15661 
 C                    -2.25586  -2.93951  -0.77996 
 O                    -2.624    -0.26045  -5.60099 
 C                     2.47277   0.87261   4.53552 
 O                     2.52528   0.31209   5.63823 
 C                    -6.55893   0.02293  -5.05576 
 H                    -6.21193  -3.97424  -8.31676 
 H                     8.02037   1.93714   4.42741 
 H                    -3.82662  -4.5861   -8.18139 
 C                     4.02933   2.58699   5.41986 
 C                    -1.75596  -5.35351  -6.08644 
 C                    -0.96921   0.85755  -3.55244 
 N                     3.20706   2.05554   4.31072 
 C                     1.60379   1.02299   2.15287 
 C                     0.80293   0.50823   1.07631 
 C                     1.52139   2.39837  -0.2979 
 C                     0.13829  -1.3479    2.52215 
 C                     7.16844   1.70452   3.78738 
 C                    -6.05546  -1.3026   -4.42591 
 H                     0.94775  -1.35506   4.52762 
 H                    -5.75758   0.51606  -5.60586 
 H                    -7.38893  -0.13483  -5.74551 
 C                     5.97932   1.10484   4.58332 
 H                     7.15654   2.33517   6.76553 
 H                     6.18251   3.97921   8.32465 
 C                     1.99481   4.01465   6.14235 
 C                    -1.14808  -3.29034  -7.51526 
 C                    -4.25172  -3.93021  -7.42231 
 C                     2.3607    2.22297   1.978 
 H                    -1.03031   1.39587  -4.49728 
 H                     0.36028   2.28859  -2.69126 
 C                    -3.16267  -2.80261  -3.11116 
 C                     3.20236   2.76131   3.08972 
 H                    -5.2719   -1.02119  -3.69925 
 H                    -6.76662  -2.95424  -3.17924 
 C                    -0.07124   0.70066  -1.27242 
 C                     0.91385  -0.83487   3.57137 
 H                    -2.31902  -5.69439  -5.21771 
 H                    -7.51969  -1.40724  -2.80046 
 C                     1.92719   5.53266   5.82812 
 H                     5.20789   0.84388   3.83634 
 H                     3.85436   4.74771   8.05705 
 C                    -1.48286  -2.43884   0.27705 
 C                     0.76167   1.22176  -0.17197 
 H                    -6.90401   0.71097  -4.2827 
 H                     0.90411   5.83477   5.59956 
 H                     2.54622   5.7742    4.96424 
 H                     2.26839   6.14401   6.66449 
 H                     1.17799   2.54434   7.54223 
 H                     1.41676   4.13018   8.27204 
 H                     1.51768   2.9633   -1.22852 
 H                     2.88613   3.80312   0.61928 
 O                     3.87937   3.79073   2.9677 
 H                    -0.41151  -2.26875   2.70835 
 C                     1.11641   3.6168    7.35782 
 H                     0.06959   3.86325   7.17465 
 C                     5.57713   3.58776   7.508 
 C                     4.25897   4.02055   7.35372 
 H                    -1.44734  -3.76742  -8.44934 
 C                    -7.15747  -2.03525  -3.61569 
 H                     6.86945   2.62353   3.28344 
 O                    -3.79419  -3.86256  -3.0084 
 H                    -1.51707  -3.33714  -5.40519 
 H                    -2.80755  -3.87047  -0.65718 
 H                    -0.70513  -5.59201  -5.91622 
 C                    -6.17704  -2.7472   -6.54543 
 C                    -3.44258  -3.44247  -6.37982 
 C                    -2.33178  -2.25699  -1.99491 
 H                    -1.46504  -3.01322   1.20158 
 C                     6.35042  -0.21727   5.30578 
 H                    -0.07945  -3.46799  -7.38628 
 H                    -1.29564  -2.21635  -7.6272 
 C                     3.45586   3.53011   6.30782 
 C                    -5.41134  -2.23164  -5.48368 
 H                     1.56283   3.49731   5.2666 
 C                    -2.52395  -0.8529   -4.51846 
 H                    -2.0867   -5.93548  -6.94752 
 H                    -8.0183   -2.29821  -4.23173 
 

 GradGradGradGradGradGradGradGradGradGradGradGradGradGradGradGradGradGrad
 Berny optimization.
 Initialization pass.
                           ----------------------------
                           !    Initial Parameters    !
                           ! (Angstroms and Degrees)  !
 --------------------------                            --------------------------
 ! Name  Definition              Value          Derivative Info.                !
 --------------------------------------------------------------------------------
 ! R1    R(1,4)                  1.4069         estimate D2E/DX2                !
 ! R2    R(1,42)                 1.0895         estimate D2E/DX2                !
 ! R3    R(1,75)                 1.3959         estimate D2E/DX2                !
 ! R4    R(2,84)                 1.0895         estimate D2E/DX2                !
 ! R5    R(3,30)                 1.4018         estimate D2E/DX2                !
 ! R6    R(3,49)                 1.0887         estimate D2E/DX2                !
 ! R7    R(3,54)                 1.4062         estimate D2E/DX2                !
 ! R8    R(4,28)                 1.4166         estimate D2E/DX2                !
 ! R9    R(4,41)                 1.5482         estimate D2E/DX2                !
 ! R10   R(5,16)                 1.4753         estimate D2E/DX2                !
 ! R11   R(5,33)                 1.4383         estimate D2E/DX2                !
 ! R12   R(5,35)                 1.4062         estimate D2E/DX2                !
 ! R13   R(6,88)                 1.0909         estimate D2E/DX2                !
 ! R14   R(7,19)                 1.4295         estimate D2E/DX2                !
 ! R15   R(7,30)                 1.3957         estimate D2E/DX2                !
 ! R16   R(7,94)                 1.4947         estimate D2E/DX2                !
 ! R17   R(8,36)                 1.0909         estimate D2E/DX2                !
 ! R18   R(9,88)                 1.0898         estimate D2E/DX2                !
 ! R19   R(10,88)                1.0907         estimate D2E/DX2                !
 ! R20   R(11,29)                1.5515         estimate D2E/DX2                !
 ! R21   R(11,45)                1.5517         estimate D2E/DX2                !
 ! R22   R(11,81)                1.1051         estimate D2E/DX2                !
 ! R23   R(11,85)                1.5482         estimate D2E/DX2                !
 ! R24   R(12,25)                1.0893         estimate D2E/DX2                !
 ! R25   R(12,46)                1.3959         estimate D2E/DX2                !
 ! R26   R(12,84)                1.3959         estimate D2E/DX2                !
 ! R27   R(13,16)                1.4384         estimate D2E/DX2                !
 ! R28   R(13,19)                1.4371         estimate D2E/DX2                !
 ! R29   R(13,54)                1.4385         estimate D2E/DX2                !
 ! R30   R(14,22)                1.4947         estimate D2E/DX2                !
 ! R31   R(14,32)                1.4294         estimate D2E/DX2                !
 ! R32   R(14,55)                1.3955         estimate D2E/DX2                !
 ! R33   R(15,17)                1.4795         estimate D2E/DX2                !
 ! R34   R(15,50)                1.4103         estimate D2E/DX2                !
 ! R35   R(15,94)                1.4103         estimate D2E/DX2                !
 ! R36   R(16,61)                1.4062         estimate D2E/DX2                !
 ! R37   R(17,85)                1.4166         estimate D2E/DX2                !
 ! R38   R(17,92)                1.4166         estimate D2E/DX2                !
 ! R39   R(18,34)                1.4018         estimate D2E/DX2                !
 ! R40   R(18,47)                1.3956         estimate D2E/DX2                !
 ! R41   R(18,70)                1.0892         estimate D2E/DX2                !
 ! R42   R(19,86)                1.4295         estimate D2E/DX2                !
 ! R43   R(20,61)                1.402          estimate D2E/DX2                !
 ! R44   R(20,82)                1.0891         estimate D2E/DX2                !
 ! R45   R(20,86)                1.3956         estimate D2E/DX2                !
 ! R46   R(21,94)                1.2381         estimate D2E/DX2                !
 ! R47   R(22,23)                1.2381         estimate D2E/DX2                !
 ! R48   R(22,31)                1.4103         estimate D2E/DX2                !
 ! R49   R(24,37)                1.5515         estimate D2E/DX2                !
 ! R50   R(24,39)                1.0899         estimate D2E/DX2                !
 ! R51   R(24,40)                1.0907         estimate D2E/DX2                !
 ! R52   R(24,63)                1.0909         estimate D2E/DX2                !
 ! R53   R(26,36)                1.0907         estimate D2E/DX2                !
 ! R54   R(27,46)                1.0895         estimate D2E/DX2                !
 ! R55   R(28,31)                1.4794         estimate D2E/DX2                !
 ! R56   R(28,91)                1.4166         estimate D2E/DX2                !
 ! R57   R(29,56)                1.0899         estimate D2E/DX2                !
 ! R58   R(29,83)                1.0909         estimate D2E/DX2                !
 ! R59   R(29,95)                1.0907         estimate D2E/DX2                !
 ! R60   R(30,48)                1.0891         estimate D2E/DX2                !
 ! R61   R(31,51)                1.4103         estimate D2E/DX2                !
 ! R62   R(32,33)                1.4371         estimate D2E/DX2                !
 ! R63   R(32,47)                1.4295         estimate D2E/DX2                !
 ! R64   R(33,62)                1.4384         estimate D2E/DX2                !
 ! R65   R(34,62)                1.4062         estimate D2E/DX2                !
 ! R66   R(34,69)                1.0887         estimate D2E/DX2                !
 ! R67   R(35,55)                1.402          estimate D2E/DX2                !
 ! R68   R(35,72)                1.0885         estimate D2E/DX2                !
 ! R69   R(36,41)                1.5515         estimate D2E/DX2                !
 ! R70   R(36,79)                1.0899         estimate D2E/DX2                !
 ! R71   R(37,52)                1.1051         estimate D2E/DX2                !
 ! R72   R(37,78)                1.5517         estimate D2E/DX2                !
 ! R73   R(37,92)                1.5482         estimate D2E/DX2                !
 ! R74   R(38,55)                1.0891         estimate D2E/DX2                !
 ! R75   R(41,59)                1.1051         estimate D2E/DX2                !
 ! R76   R(41,88)                1.5517         estimate D2E/DX2                !
 ! R77   R(43,75)                1.0893         estimate D2E/DX2                !
 ! R78   R(44,58)                1.5517         estimate D2E/DX2                !
 ! R79   R(44,73)                1.5515         estimate D2E/DX2                !
 ! R80   R(44,91)                1.5482         estimate D2E/DX2                !
 ! R81   R(44,93)                1.1051         estimate D2E/DX2                !
 ! R82   R(45,77)                1.0907         estimate D2E/DX2                !
 ! R83   R(45,89)                1.091          estimate D2E/DX2                !
 ! R84   R(45,90)                1.0898         estimate D2E/DX2                !
 ! R85   R(46,85)                1.4069         estimate D2E/DX2                !
 ! R86   R(47,51)                1.4947         estimate D2E/DX2                !
 ! R87   R(50,80)                1.2381         estimate D2E/DX2                !
 ! R88   R(50,86)                1.4947         estimate D2E/DX2                !
 ! R89   R(51,71)                1.2381         estimate D2E/DX2                !
 ! R90   R(53,78)                1.0899         estimate D2E/DX2                !
 ! R91   R(54,62)                1.4752         estimate D2E/DX2                !
 ! R92   R(57,78)                1.091          estimate D2E/DX2                !
 ! R93   R(58,64)                1.091          estimate D2E/DX2                !
 ! R94   R(58,65)                1.0899         estimate D2E/DX2                !
 ! R95   R(58,66)                1.0907         estimate D2E/DX2                !
 ! R96   R(60,76)                1.0896         estimate D2E/DX2                !
 ! R97   R(61,87)                1.0886         estimate D2E/DX2                !
 ! R98   R(67,73)                1.0899         estimate D2E/DX2                !
 ! R99   R(68,73)                1.0907         estimate D2E/DX2                !
 ! R100  R(73,74)                1.0909         estimate D2E/DX2                !
 ! R101  R(75,76)                1.3959         estimate D2E/DX2                !
 ! R102  R(76,91)                1.4069         estimate D2E/DX2                !
 ! R103  R(78,96)                1.0907         estimate D2E/DX2                !
 ! R104  R(84,92)                1.4069         estimate D2E/DX2                !
 ! A1    A(4,1,42)             120.0357         estimate D2E/DX2                !
 ! A2    A(4,1,75)             120.8713         estimate D2E/DX2                !
 ! A3    A(42,1,75)            119.0929         estimate D2E/DX2                !
 ! A4    A(30,3,49)            117.4482         estimate D2E/DX2                !
 ! A5    A(30,3,54)            121.9633         estimate D2E/DX2                !
 ! A6    A(49,3,54)            120.5885         estimate D2E/DX2                !
 ! A7    A(1,4,28)             117.8381         estimate D2E/DX2                !
 ! A8    A(1,4,41)             120.6044         estimate D2E/DX2                !
 ! A9    A(28,4,41)            121.5574         estimate D2E/DX2                !
 ! A10   A(16,5,33)            119.2316         estimate D2E/DX2                !
 ! A11   A(16,5,35)            122.254          estimate D2E/DX2                !
 ! A12   A(33,5,35)            118.5144         estimate D2E/DX2                !
 ! A13   A(19,7,30)            119.2381         estimate D2E/DX2                !
 ! A14   A(19,7,94)            120.6349         estimate D2E/DX2                !
 ! A15   A(30,7,94)            120.1268         estimate D2E/DX2                !
 ! A16   A(29,11,45)           112.6331         estimate D2E/DX2                !
 ! A17   A(29,11,81)           106.2338         estimate D2E/DX2                !
 ! A18   A(29,11,85)           111.734          estimate D2E/DX2                !
 ! A19   A(45,11,81)           106.2886         estimate D2E/DX2                !
 ! A20   A(45,11,85)           111.6506         estimate D2E/DX2                !
 ! A21   A(81,11,85)           107.8812         estimate D2E/DX2                !
 ! A22   A(25,12,46)           119.7501         estimate D2E/DX2                !
 ! A23   A(25,12,84)           119.7499         estimate D2E/DX2                !
 ! A24   A(46,12,84)           120.5            estimate D2E/DX2                !
 ! A25   A(16,13,19)           119.2371         estimate D2E/DX2                !
 ! A26   A(16,13,54)           121.5261         estimate D2E/DX2                !
 ! A27   A(19,13,54)           119.2369         estimate D2E/DX2                !
 ! A28   A(22,14,32)           120.6324         estimate D2E/DX2                !
 ! A29   A(22,14,55)           120.1241         estimate D2E/DX2                !
 ! A30   A(32,14,55)           119.2434         estimate D2E/DX2                !
 ! A31   A(17,15,50)           118.1073         estimate D2E/DX2                !
 ! A32   A(17,15,94)           118.1127         estimate D2E/DX2                !
 ! A33   A(50,15,94)           123.78           estimate D2E/DX2                !
 ! A34   A(5,16,13)            119.2323         estimate D2E/DX2                !
 ! A35   A(5,16,61)            122.2565         estimate D2E/DX2                !
 ! A36   A(13,16,61)           118.5112         estimate D2E/DX2                !
 ! A37   A(15,17,85)           118.964          estimate D2E/DX2                !
 ! A38   A(15,17,92)           118.954          estimate D2E/DX2                !
 ! A39   A(85,17,92)           122.082          estimate D2E/DX2                !
 ! A40   A(34,18,47)           120.7791         estimate D2E/DX2                !
 ! A41   A(34,18,70)           119.9777         estimate D2E/DX2                !
 ! A42   A(47,18,70)           119.2431         estimate D2E/DX2                !
 ! A43   A(7,19,13)            120.2748         estimate D2E/DX2                !
 ! A44   A(7,19,86)            119.4505         estimate D2E/DX2                !
 ! A45   A(13,19,86)           120.2747         estimate D2E/DX2                !
 ! A46   A(61,20,82)           119.9719         estimate D2E/DX2                !
 ! A47   A(61,20,86)           120.7775         estimate D2E/DX2                !
 ! A48   A(82,20,86)           119.2504         estimate D2E/DX2                !
 ! A49   A(14,22,23)           122.2791         estimate D2E/DX2                !
 ! A50   A(14,22,31)           117.7467         estimate D2E/DX2                !
 ! A51   A(23,22,31)           119.9741         estimate D2E/DX2                !
 ! A52   A(37,24,39)           110.6616         estimate D2E/DX2                !
 ! A53   A(37,24,40)           112.3402         estimate D2E/DX2                !
 ! A54   A(37,24,63)           110.7202         estimate D2E/DX2                !
 ! A55   A(39,24,40)           107.8045         estimate D2E/DX2                !
 ! A56   A(39,24,63)           107.7502         estimate D2E/DX2                !
 ! A57   A(40,24,63)           107.3768         estimate D2E/DX2                !
 ! A58   A(4,28,31)            118.9655         estimate D2E/DX2                !
 ! A59   A(4,28,91)            122.0821         estimate D2E/DX2                !
 ! A60   A(31,28,91)           118.9523         estimate D2E/DX2                !
 ! A61   A(11,29,56)           110.6638         estimate D2E/DX2                !
 ! A62   A(11,29,83)           110.7228         estimate D2E/DX2                !
 ! A63   A(11,29,95)           112.3377         estimate D2E/DX2                !
 ! A64   A(56,29,83)           107.7509         estimate D2E/DX2                !
 ! A65   A(56,29,95)           107.8024         estimate D2E/DX2                !
 ! A66   A(83,29,95)           107.3758         estimate D2E/DX2                !
 ! A67   A(3,30,7)             120.7792         estimate D2E/DX2                !
 ! A68   A(3,30,48)            119.98           estimate D2E/DX2                !
 ! A69   A(7,30,48)            119.2408         estimate D2E/DX2                !
 ! A70   A(22,31,28)           118.1108         estimate D2E/DX2                !
 ! A71   A(22,31,51)           123.7802         estimate D2E/DX2                !
 ! A72   A(28,31,51)           118.109          estimate D2E/DX2                !
 ! A73   A(14,32,33)           120.2724         estimate D2E/DX2                !
 ! A74   A(14,32,47)           119.4553         estimate D2E/DX2                !
 ! A75   A(33,32,47)           120.2723         estimate D2E/DX2                !
 ! A76   A(5,33,32)            119.2349         estimate D2E/DX2                !
 ! A77   A(5,33,62)            121.5303         estimate D2E/DX2                !
 ! A78   A(32,33,62)           119.2348         estimate D2E/DX2                !
 ! A79   A(18,34,62)           121.962          estimate D2E/DX2                !
 ! A80   A(18,34,69)           117.4474         estimate D2E/DX2                !
 ! A81   A(62,34,69)           120.5905         estimate D2E/DX2                !
 ! A82   A(5,35,55)            121.9516         estimate D2E/DX2                !
 ! A83   A(5,35,72)            120.5997         estimate D2E/DX2                !
 ! A84   A(55,35,72)           117.4485         estimate D2E/DX2                !
 ! A85   A(8,36,26)            107.3755         estimate D2E/DX2                !
 ! A86   A(8,36,41)            110.7239         estimate D2E/DX2                !
 ! A87   A(8,36,79)            107.7503         estimate D2E/DX2                !
 ! A88   A(26,36,41)           112.3374         estimate D2E/DX2                !
 ! A89   A(26,36,79)           107.8043         estimate D2E/DX2                !
 ! A90   A(41,36,79)           110.6621         estimate D2E/DX2                !
 ! A91   A(24,37,52)           106.2287         estimate D2E/DX2                !
 ! A92   A(24,37,78)           112.6379         estimate D2E/DX2                !
 ! A93   A(24,37,92)           111.7354         estimate D2E/DX2                !
 ! A94   A(52,37,78)           106.2878         estimate D2E/DX2                !
 ! A95   A(52,37,92)           107.8834         estimate D2E/DX2                !
 ! A96   A(78,37,92)           111.6477         estimate D2E/DX2                !
 ! A97   A(4,41,36)            111.7295         estimate D2E/DX2                !
 ! A98   A(4,41,59)            107.8815         estimate D2E/DX2                !
 ! A99   A(4,41,88)            111.6522         estimate D2E/DX2                !
 ! A100  A(36,41,59)           106.2324         estimate D2E/DX2                !
 ! A101  A(36,41,88)           112.6373         estimate D2E/DX2                !
 ! A102  A(59,41,88)           106.2882         estimate D2E/DX2                !
 ! A103  A(58,44,73)           112.6337         estimate D2E/DX2                !
 ! A104  A(58,44,91)           111.6514         estimate D2E/DX2                !
 ! A105  A(58,44,93)           106.2885         estimate D2E/DX2                !
 ! A106  A(73,44,91)           111.7346         estimate D2E/DX2                !
 ! A107  A(73,44,93)           106.2288         estimate D2E/DX2                !
 ! A108  A(91,44,93)           107.884          estimate D2E/DX2                !
 ! A109  A(11,45,77)           112.2963         estimate D2E/DX2                !
 ! A110  A(11,45,89)           110.7428         estimate D2E/DX2                !
 ! A111  A(11,45,90)           110.6465         estimate D2E/DX2                !
 ! A112  A(77,45,89)           107.3843         estimate D2E/DX2                !
 ! A113  A(77,45,90)           107.8139         estimate D2E/DX2                !
 ! A114  A(89,45,90)           107.7726         estimate D2E/DX2                !
 ! A115  A(12,46,27)           119.0931         estimate D2E/DX2                !
 ! A116  A(12,46,85)           120.8711         estimate D2E/DX2                !
 ! A117  A(27,46,85)           120.0358         estimate D2E/DX2                !
 ! A118  A(18,47,32)           119.2405         estimate D2E/DX2                !
 ! A119  A(18,47,51)           120.1281         estimate D2E/DX2                !
 ! A120  A(32,47,51)           120.6313         estimate D2E/DX2                !
 ! A121  A(15,50,80)           119.973          estimate D2E/DX2                !
 ! A122  A(15,50,86)           117.7454         estimate D2E/DX2                !
 ! A123  A(80,50,86)           122.2815         estimate D2E/DX2                !
 ! A124  A(31,51,47)           117.7473         estimate D2E/DX2                !
 ! A125  A(31,51,71)           119.9725         estimate D2E/DX2                !
 ! A126  A(47,51,71)           122.2802         estimate D2E/DX2                !
 ! A127  A(3,54,13)            118.5044         estimate D2E/DX2                !
 ! A128  A(3,54,62)            122.2617         estimate D2E/DX2                !
 ! A129  A(13,54,62)           119.2339         estimate D2E/DX2                !
 ! A130  A(14,55,35)           120.7801         estimate D2E/DX2                !
 ! A131  A(14,55,38)           119.2514         estimate D2E/DX2                !
 ! A132  A(35,55,38)           119.9684         estimate D2E/DX2                !
 ! A133  A(44,58,64)           110.7449         estimate D2E/DX2                !
 ! A134  A(44,58,65)           110.6453         estimate D2E/DX2                !
 ! A135  A(44,58,66)           112.2979         estimate D2E/DX2                !
 ! A136  A(64,58,65)           107.7707         estimate D2E/DX2                !
 ! A137  A(64,58,66)           107.3848         estimate D2E/DX2                !
 ! A138  A(65,58,66)           107.8126         estimate D2E/DX2                !
 ! A139  A(16,61,20)           121.9555         estimate D2E/DX2                !
 ! A140  A(16,61,87)           120.5973         estimate D2E/DX2                !
 ! A141  A(20,61,87)           117.4472         estimate D2E/DX2                !
 ! A142  A(33,62,34)           118.5079         estimate D2E/DX2                !
 ! A143  A(33,62,54)           119.2305         estimate D2E/DX2                !
 ! A144  A(34,62,54)           122.2616         estimate D2E/DX2                !
 ! A145  A(44,73,67)           110.663          estimate D2E/DX2                !
 ! A146  A(44,73,68)           112.337          estimate D2E/DX2                !
 ! A147  A(44,73,74)           110.7198         estimate D2E/DX2                !
 ! A148  A(67,73,68)           107.8046         estimate D2E/DX2                !
 ! A149  A(67,73,74)           107.7526         estimate D2E/DX2                !
 ! A150  A(68,73,74)           107.3766         estimate D2E/DX2                !
 ! A151  A(1,75,43)            119.7504         estimate D2E/DX2                !
 ! A152  A(1,75,76)            120.4997         estimate D2E/DX2                !
 ! A153  A(43,75,76)           119.7499         estimate D2E/DX2                !
 ! A154  A(60,76,75)           119.0931         estimate D2E/DX2                !
 ! A155  A(60,76,91)           120.0359         estimate D2E/DX2                !
 ! A156  A(75,76,91)           120.871          estimate D2E/DX2                !
 ! A157  A(37,78,53)           110.6434         estimate D2E/DX2                !
 ! A158  A(37,78,57)           110.7438         estimate D2E/DX2                !
 ! A159  A(37,78,96)           112.2988         estimate D2E/DX2                !
 ! A160  A(53,78,57)           107.7712         estimate D2E/DX2                !
 ! A161  A(53,78,96)           107.814          estimate D2E/DX2                !
 ! A162  A(57,78,96)           107.3851         estimate D2E/DX2                !
 ! A163  A(2,84,12)            119.0933         estimate D2E/DX2                !
 ! A164  A(2,84,92)            120.0358         estimate D2E/DX2                !
 ! A165  A(12,84,92)           120.8709         estimate D2E/DX2                !
 ! A166  A(11,85,17)           121.5578         estimate D2E/DX2                !
 ! A167  A(11,85,46)           120.6037         estimate D2E/DX2                !
 ! A168  A(17,85,46)           117.8384         estimate D2E/DX2                !
 ! A169  A(19,86,20)           119.2407         estimate D2E/DX2                !
 ! A170  A(19,86,50)           120.6362         estimate D2E/DX2                !
 ! A171  A(20,86,50)           120.1231         estimate D2E/DX2                !
 ! A172  A(6,88,9)             107.7708         estimate D2E/DX2                !
 ! A173  A(6,88,10)            107.3838         estimate D2E/DX2                !
 ! A174  A(6,88,41)            110.7435         estimate D2E/DX2                !
 ! A175  A(9,88,10)            107.8137         estimate D2E/DX2                !
 ! A176  A(9,88,41)            110.6453         estimate D2E/DX2                !
 ! A177  A(10,88,41)           112.2991         estimate D2E/DX2                !
 ! A178  A(28,91,44)           121.561          estimate D2E/DX2                !
 ! A179  A(28,91,76)           117.8377         estimate D2E/DX2                !
 ! A180  A(44,91,76)           120.6013         estimate D2E/DX2                !
 ! A181  A(17,92,37)           121.5599         estimate D2E/DX2                !
 ! A182  A(17,92,84)           117.8376         estimate D2E/DX2                !
 ! A183  A(37,92,84)           120.6025         estimate D2E/DX2                !
 ! A184  A(7,94,15)            117.7465         estimate D2E/DX2                !
 ! A185  A(7,94,21)            122.279          estimate D2E/DX2                !
 ! A186  A(15,94,21)           119.9745         estimate D2E/DX2                !
 ! D1    D(42,1,4,28)          179.9579         estimate D2E/DX2                !
 ! D2    D(42,1,4,41)            0.0194         estimate D2E/DX2                !
 ! D3    D(75,1,4,28)           -0.0519         estimate D2E/DX2                !
 ! D4    D(75,1,4,41)         -179.9904         estimate D2E/DX2                !
 ! D5    D(4,1,75,43)         -179.9695         estimate D2E/DX2                !
 ! D6    D(4,1,75,76)            0.0242         estimate D2E/DX2                !
 ! D7    D(42,1,75,43)           0.0208         estimate D2E/DX2                !
 ! D8    D(42,1,75,76)        -179.9855         estimate D2E/DX2                !
 ! D9    D(49,3,30,7)          179.8051         estimate D2E/DX2                !
 ! D10   D(49,3,30,48)          -0.0978         estimate D2E/DX2                !
 ! D11   D(54,3,30,7)           -0.2954         estimate D2E/DX2                !
 ! D12   D(54,3,30,48)         179.8017         estimate D2E/DX2                !
 ! D13   D(30,3,54,13)          -0.0724         estimate D2E/DX2                !
 ! D14   D(30,3,54,62)         179.9267         estimate D2E/DX2                !
 ! D15   D(49,3,54,13)         179.824          estimate D2E/DX2                !
 ! D16   D(49,3,54,62)          -0.1769         estimate D2E/DX2                !
 ! D17   D(1,4,28,31)         -179.9766         estimate D2E/DX2                !
 ! D18   D(1,4,28,91)            0.0232         estimate D2E/DX2                !
 ! D19   D(41,4,28,31)          -0.0386         estimate D2E/DX2                !
 ! D20   D(41,4,28,91)         179.9612         estimate D2E/DX2                !
 ! D21   D(1,4,41,36)          -63.4012         estimate D2E/DX2                !
 ! D22   D(1,4,41,59)         -179.8102         estimate D2E/DX2                !
 ! D23   D(1,4,41,88)           63.7563         estimate D2E/DX2                !
 ! D24   D(28,4,41,36)         116.6625         estimate D2E/DX2                !
 ! D25   D(28,4,41,59)           0.2536         estimate D2E/DX2                !
 ! D26   D(28,4,41,88)        -116.1799         estimate D2E/DX2                !
 ! D27   D(33,5,16,13)          -1.1615         estimate D2E/DX2                !
 ! D28   D(33,5,16,61)         178.8823         estimate D2E/DX2                !
 ! D29   D(35,5,16,13)         178.8417         estimate D2E/DX2                !
 ! D30   D(35,5,16,61)          -1.1146         estimate D2E/DX2                !
 ! D31   D(16,5,33,32)        -179.4613         estimate D2E/DX2                !
 ! D32   D(16,5,33,62)           0.546          estimate D2E/DX2                !
 ! D33   D(35,5,33,32)           0.5356         estimate D2E/DX2                !
 ! D34   D(35,5,33,62)        -179.457          estimate D2E/DX2                !
 ! D35   D(16,5,35,55)         179.924          estimate D2E/DX2                !
 ! D36   D(16,5,35,72)          -0.1865         estimate D2E/DX2                !
 ! D37   D(33,5,35,55)          -0.0729         estimate D2E/DX2                !
 ! D38   D(33,5,35,72)         179.8167         estimate D2E/DX2                !
 ! D39   D(30,7,19,13)           0.2878         estimate D2E/DX2                !
 ! D40   D(30,7,19,86)        -179.7212         estimate D2E/DX2                !
 ! D41   D(94,7,19,13)        -179.5728         estimate D2E/DX2                !
 ! D42   D(94,7,19,86)           0.4181         estimate D2E/DX2                !
 ! D43   D(19,7,30,3)            0.1836         estimate D2E/DX2                !
 ! D44   D(19,7,30,48)        -179.9128         estimate D2E/DX2                !
 ! D45   D(94,7,30,3)         -179.955          estimate D2E/DX2                !
 ! D46   D(94,7,30,48)          -0.0514         estimate D2E/DX2                !
 ! D47   D(19,7,94,15)          -0.7598         estimate D2E/DX2                !
 ! D48   D(19,7,94,21)         179.3123         estimate D2E/DX2                !
 ! D49   D(30,7,94,15)         179.3808         estimate D2E/DX2                !
 ! D50   D(30,7,94,21)          -0.5471         estimate D2E/DX2                !
 ! D51   D(45,11,29,56)        179.3084         estimate D2E/DX2                !
 ! D52   D(45,11,29,83)         59.8978         estimate D2E/DX2                !
 ! D53   D(45,11,29,95)        -60.1453         estimate D2E/DX2                !
 ! D54   D(81,11,29,56)         63.3387         estimate D2E/DX2                !
 ! D55   D(81,11,29,83)        -56.0718         estimate D2E/DX2                !
 ! D56   D(81,11,29,95)       -176.115          estimate D2E/DX2                !
 ! D57   D(85,11,29,56)        -54.0702         estimate D2E/DX2                !
 ! D58   D(85,11,29,83)       -173.4807         estimate D2E/DX2                !
 ! D59   D(85,11,29,95)         66.4761         estimate D2E/DX2                !
 ! D60   D(29,11,45,77)         60.0831         estimate D2E/DX2                !
 ! D61   D(29,11,45,89)        -59.9568         estimate D2E/DX2                !
 ! D62   D(29,11,45,90)       -179.3961         estimate D2E/DX2                !
 ! D63   D(81,11,45,77)        176.0199         estimate D2E/DX2                !
 ! D64   D(81,11,45,89)         55.98           estimate D2E/DX2                !
 ! D65   D(81,11,45,90)        -63.4593         estimate D2E/DX2                !
 ! D66   D(85,11,45,77)        -66.583          estimate D2E/DX2                !
 ! D67   D(85,11,45,89)        173.3772         estimate D2E/DX2                !
 ! D68   D(85,11,45,90)         53.9378         estimate D2E/DX2                !
 ! D69   D(29,11,85,17)        116.6881         estimate D2E/DX2                !
 ! D70   D(29,11,85,46)        -63.3826         estimate D2E/DX2                !
 ! D71   D(45,11,85,17)       -116.1577         estimate D2E/DX2                !
 ! D72   D(45,11,85,46)         63.7716         estimate D2E/DX2                !
 ! D73   D(81,11,85,17)          0.2752         estimate D2E/DX2                !
 ! D74   D(81,11,85,46)       -179.7955         estimate D2E/DX2                !
 ! D75   D(25,12,46,27)          0.0163         estimate D2E/DX2                !
 ! D76   D(25,12,46,85)       -179.971          estimate D2E/DX2                !
 ! D77   D(84,12,46,27)       -179.9847         estimate D2E/DX2                !
 ! D78   D(84,12,46,85)          0.0281         estimate D2E/DX2                !
 ! D79   D(25,12,84,2)           0.0156         estimate D2E/DX2                !
 ! D80   D(25,12,84,92)       -179.9725         estimate D2E/DX2                !
 ! D81   D(46,12,84,2)        -179.9834         estimate D2E/DX2                !
 ! D82   D(46,12,84,92)          0.0284         estimate D2E/DX2                !
 ! D83   D(19,13,16,5)        -179.38           estimate D2E/DX2                !
 ! D84   D(19,13,16,61)          0.5779         estimate D2E/DX2                !
 ! D85   D(54,13,16,5)           0.6189         estimate D2E/DX2                !
 ! D86   D(54,13,16,61)       -179.4232         estimate D2E/DX2                !
 ! D87   D(16,13,19,7)         179.3518         estimate D2E/DX2                !
 ! D88   D(16,13,19,86)         -0.639          estimate D2E/DX2                !
 ! D89   D(54,13,19,7)          -0.6471         estimate D2E/DX2                !
 ! D90   D(54,13,19,86)        179.362          estimate D2E/DX2                !
 ! D91   D(16,13,54,3)        -179.4643         estimate D2E/DX2                !
 ! D92   D(16,13,54,62)          0.5366         estimate D2E/DX2                !
 ! D93   D(19,13,54,3)           0.5347         estimate D2E/DX2                !
 ! D94   D(19,13,54,62)       -179.4645         estimate D2E/DX2                !
 ! D95   D(32,14,22,23)        179.3311         estimate D2E/DX2                !
 ! D96   D(32,14,22,31)         -0.7542         estimate D2E/DX2                !
 ! D97   D(55,14,22,23)         -0.5213         estimate D2E/DX2                !
 ! D98   D(55,14,22,31)        179.3934         estimate D2E/DX2                !
 ! D99   D(22,14,32,33)       -179.5766         estimate D2E/DX2                !
 ! D100  D(22,14,32,47)          0.4196         estimate D2E/DX2                !
 ! D101  D(55,14,32,33)          0.2771         estimate D2E/DX2                !
 ! D102  D(55,14,32,47)       -179.7267         estimate D2E/DX2                !
 ! D103  D(22,14,55,35)       -179.9506         estimate D2E/DX2                !
 ! D104  D(22,14,55,38)         -0.0536         estimate D2E/DX2                !
 ! D105  D(32,14,55,35)          0.195          estimate D2E/DX2                !
 ! D106  D(32,14,55,38)       -179.908          estimate D2E/DX2                !
 ! D107  D(50,15,17,85)        -91.4837         estimate D2E/DX2                !
 ! D108  D(50,15,17,92)         88.5172         estimate D2E/DX2                !
 ! D109  D(94,15,17,85)         88.5495         estimate D2E/DX2                !
 ! D110  D(94,15,17,92)        -91.4495         estimate D2E/DX2                !
 ! D111  D(17,15,50,80)          0.3301         estimate D2E/DX2                !
 ! D112  D(17,15,50,86)       -179.5555         estimate D2E/DX2                !
 ! D113  D(94,15,50,80)       -179.7052         estimate D2E/DX2                !
 ! D114  D(94,15,50,86)          0.4093         estimate D2E/DX2                !
 ! D115  D(17,15,94,7)        -179.7078         estimate D2E/DX2                !
 ! D116  D(17,15,94,21)          0.2219         estimate D2E/DX2                !
 ! D117  D(50,15,94,7)           0.3275         estimate D2E/DX2                !
 ! D118  D(50,15,94,21)       -179.7429         estimate D2E/DX2                !
 ! D119  D(5,16,61,20)         179.832          estimate D2E/DX2                !
 ! D120  D(5,16,61,87)          -0.2509         estimate D2E/DX2                !
 ! D121  D(13,16,61,20)         -0.1245         estimate D2E/DX2                !
 ! D122  D(13,16,61,87)        179.7926         estimate D2E/DX2                !
 ! D123  D(15,17,85,11)         -0.0458         estimate D2E/DX2                !
 ! D124  D(15,17,85,46)       -179.977          estimate D2E/DX2                !
 ! D125  D(92,17,85,11)        179.9532         estimate D2E/DX2                !
 ! D126  D(92,17,85,46)          0.022          estimate D2E/DX2                !
 ! D127  D(15,17,92,37)         -0.0515         estimate D2E/DX2                !
 ! D128  D(15,17,92,84)       -179.9694         estimate D2E/DX2                !
 ! D129  D(85,17,92,37)        179.9495         estimate D2E/DX2                !
 ! D130  D(85,17,92,84)          0.0316         estimate D2E/DX2                !
 ! D131  D(47,18,34,62)         -0.2866         estimate D2E/DX2                !
 ! D132  D(47,18,34,69)        179.7929         estimate D2E/DX2                !
 ! D133  D(70,18,34,62)        179.8332         estimate D2E/DX2                !
 ! D134  D(70,18,34,69)         -0.0873         estimate D2E/DX2                !
 ! D135  D(34,18,47,32)          0.2182         estimate D2E/DX2                !
 ! D136  D(34,18,47,51)       -179.8783         estimate D2E/DX2                !
 ! D137  D(70,18,47,32)       -179.9007         estimate D2E/DX2                !
 ! D138  D(70,18,47,51)          0.0028         estimate D2E/DX2                !
 ! D139  D(7,19,86,20)        -179.7556         estimate D2E/DX2                !
 ! D140  D(7,19,86,50)           0.3454         estimate D2E/DX2                !
 ! D141  D(13,19,86,20)          0.2354         estimate D2E/DX2                !
 ! D142  D(13,19,86,50)       -179.6636         estimate D2E/DX2                !
 ! D143  D(82,20,61,16)        179.8362         estimate D2E/DX2                !
 ! D144  D(82,20,61,87)         -0.0834         estimate D2E/DX2                !
 ! D145  D(86,20,61,16)         -0.2877         estimate D2E/DX2                !
 ! D146  D(86,20,61,87)        179.7927         estimate D2E/DX2                !
 ! D147  D(61,20,86,19)          0.2288         estimate D2E/DX2                !
 ! D148  D(61,20,86,50)       -179.8717         estimate D2E/DX2                !
 ! D149  D(82,20,86,19)       -179.8942         estimate D2E/DX2                !
 ! D150  D(82,20,86,50)          0.0053         estimate D2E/DX2                !
 ! D151  D(14,22,31,28)       -179.7138         estimate D2E/DX2                !
 ! D152  D(14,22,31,51)          0.3078         estimate D2E/DX2                !
 ! D153  D(23,22,31,28)          0.2029         estimate D2E/DX2                !
 ! D154  D(23,22,31,51)       -179.7754         estimate D2E/DX2                !
 ! D155  D(39,24,37,52)         63.3287         estimate D2E/DX2                !
 ! D156  D(39,24,37,78)        179.2969         estimate D2E/DX2                !
 ! D157  D(39,24,37,92)        -54.0805         estimate D2E/DX2                !
 ! D158  D(40,24,37,52)       -176.1221         estimate D2E/DX2                !
 ! D159  D(40,24,37,78)        -60.1539         estimate D2E/DX2                !
 ! D160  D(40,24,37,92)         66.4687         estimate D2E/DX2                !
 ! D161  D(63,24,37,52)        -56.0779         estimate D2E/DX2                !
 ! D162  D(63,24,37,78)         59.8904         estimate D2E/DX2                !
 ! D163  D(63,24,37,92)       -173.4871         estimate D2E/DX2                !
 ! D164  D(4,28,31,22)          88.5416         estimate D2E/DX2                !
 ! D165  D(4,28,31,51)         -91.4788         estimate D2E/DX2                !
 ! D166  D(91,28,31,22)        -91.4582         estimate D2E/DX2                !
 ! D167  D(91,28,31,51)         88.5214         estimate D2E/DX2                !
 ! D168  D(4,28,91,44)         179.9558         estimate D2E/DX2                !
 ! D169  D(4,28,91,76)           0.0325         estimate D2E/DX2                !
 ! D170  D(31,28,91,44)         -0.0444         estimate D2E/DX2                !
 ! D171  D(31,28,91,76)       -179.9677         estimate D2E/DX2                !
 ! D172  D(22,31,51,47)          0.4344         estimate D2E/DX2                !
 ! D173  D(22,31,51,71)       -179.6667         estimate D2E/DX2                !
 ! D174  D(28,31,51,47)       -179.544          estimate D2E/DX2                !
 ! D175  D(28,31,51,71)          0.355          estimate D2E/DX2                !
 ! D176  D(14,32,33,5)          -0.6426         estimate D2E/DX2                !
 ! D177  D(14,32,33,62)        179.3503         estimate D2E/DX2                !
 ! D178  D(47,32,33,5)         179.3613         estimate D2E/DX2                !
 ! D179  D(47,32,33,62)         -0.6459         estimate D2E/DX2                !
 ! D180  D(14,32,47,18)       -179.7474         estimate D2E/DX2                !
 ! D181  D(14,32,47,51)          0.3496         estimate D2E/DX2                !
 ! D182  D(33,32,47,18)          0.2488         estimate D2E/DX2                !
 ! D183  D(33,32,47,51)       -179.6542         estimate D2E/DX2                !
 ! D184  D(5,33,62,34)        -179.4319         estimate D2E/DX2                !
 ! D185  D(5,33,62,54)           0.6094         estimate D2E/DX2                !
 ! D186  D(32,33,62,34)          0.5754         estimate D2E/DX2                !
 ! D187  D(32,33,62,54)       -179.3832         estimate D2E/DX2                !
 ! D188  D(18,34,62,33)         -0.1191         estimate D2E/DX2                !
 ! D189  D(18,34,62,54)        179.8382         estimate D2E/DX2                !
 ! D190  D(69,34,62,33)        179.7989         estimate D2E/DX2                !
 ! D191  D(69,34,62,54)         -0.2438         estimate D2E/DX2                !
 ! D192  D(5,35,55,14)          -0.3013         estimate D2E/DX2                !
 ! D193  D(5,35,55,38)         179.8025         estimate D2E/DX2                !
 ! D194  D(72,35,55,14)        179.8059         estimate D2E/DX2                !
 ! D195  D(72,35,55,38)         -0.0904         estimate D2E/DX2                !
 ! D196  D(8,36,41,4)         -173.5079         estimate D2E/DX2                !
 ! D197  D(8,36,41,59)         -56.1019         estimate D2E/DX2                !
 ! D198  D(8,36,41,88)          59.8687         estimate D2E/DX2                !
 ! D199  D(26,36,41,4)          66.4489         estimate D2E/DX2                !
 ! D200  D(26,36,41,59)       -176.1451         estimate D2E/DX2                !
 ! D201  D(26,36,41,88)        -60.1746         estimate D2E/DX2                !
 ! D202  D(79,36,41,4)         -54.0985         estimate D2E/DX2                !
 ! D203  D(79,36,41,59)         63.3075         estimate D2E/DX2                !
 ! D204  D(79,36,41,88)        179.2781         estimate D2E/DX2                !
 ! D205  D(24,37,78,53)       -179.3632         estimate D2E/DX2                !
 ! D206  D(24,37,78,57)        -59.9269         estimate D2E/DX2                !
 ! D207  D(24,37,78,96)         60.1163         estimate D2E/DX2                !
 ! D208  D(52,37,78,53)        -63.4304         estimate D2E/DX2                !
 ! D209  D(52,37,78,57)         56.0058         estimate D2E/DX2                !
 ! D210  D(52,37,78,96)        176.0491         estimate D2E/DX2                !
 ! D211  D(92,37,78,53)         53.9673         estimate D2E/DX2                !
 ! D212  D(92,37,78,57)        173.4036         estimate D2E/DX2                !
 ! D213  D(92,37,78,96)        -66.5531         estimate D2E/DX2                !
 ! D214  D(24,37,92,17)        116.7184         estimate D2E/DX2                !
 ! D215  D(24,37,92,84)        -63.366          estimate D2E/DX2                !
 ! D216  D(52,37,92,17)          0.3094         estimate D2E/DX2                !
 ! D217  D(52,37,92,84)       -179.7749         estimate D2E/DX2                !
 ! D218  D(78,37,92,17)       -116.1223         estimate D2E/DX2                !
 ! D219  D(78,37,92,84)         63.7934         estimate D2E/DX2                !
 ! D220  D(4,41,88,6)          173.3871         estimate D2E/DX2                !
 ! D221  D(4,41,88,9)           53.9502         estimate D2E/DX2                !
 ! D222  D(4,41,88,10)         -66.5714         estimate D2E/DX2                !
 ! D223  D(36,41,88,6)         -59.9481         estimate D2E/DX2                !
 ! D224  D(36,41,88,9)        -179.385          estimate D2E/DX2                !
 ! D225  D(36,41,88,10)         60.0934         estimate D2E/DX2                !
 ! D226  D(59,41,88,6)          55.989          estimate D2E/DX2                !
 ! D227  D(59,41,88,9)         -63.4479         estimate D2E/DX2                !
 ! D228  D(59,41,88,10)        176.0306         estimate D2E/DX2                !
 ! D229  D(73,44,58,64)        -59.9594         estimate D2E/DX2                !
 ! D230  D(73,44,58,65)       -179.3969         estimate D2E/DX2                !
 ! D231  D(73,44,58,66)         60.0838         estimate D2E/DX2                !
 ! D232  D(91,44,58,64)        173.3726         estimate D2E/DX2                !
 ! D233  D(91,44,58,65)         53.935          estimate D2E/DX2                !
 ! D234  D(91,44,58,66)        -66.5843         estimate D2E/DX2                !
 ! D235  D(93,44,58,64)         55.9717         estimate D2E/DX2                !
 ! D236  D(93,44,58,65)        -63.4658         estimate D2E/DX2                !
 ! D237  D(93,44,58,66)        176.0149         estimate D2E/DX2                !
 ! D238  D(58,44,73,67)        179.3076         estimate D2E/DX2                !
 ! D239  D(58,44,73,68)        -60.1442         estimate D2E/DX2                !
 ! D240  D(58,44,73,74)         59.8973         estimate D2E/DX2                !
 ! D241  D(91,44,73,67)        -54.0689         estimate D2E/DX2                !
 ! D242  D(91,44,73,68)         66.4793         estimate D2E/DX2                !
 ! D243  D(91,44,73,74)       -173.4791         estimate D2E/DX2                !
 ! D244  D(93,44,73,67)         63.3407         estimate D2E/DX2                !
 ! D245  D(93,44,73,68)       -176.1111         estimate D2E/DX2                !
 ! D246  D(93,44,73,74)        -56.0696         estimate D2E/DX2                !
 ! D247  D(58,44,91,28)       -116.1391         estimate D2E/DX2                !
 ! D248  D(58,44,91,76)         63.7821         estimate D2E/DX2                !
 ! D249  D(73,44,91,28)        116.7048         estimate D2E/DX2                !
 ! D250  D(73,44,91,76)        -63.3741         estimate D2E/DX2                !
 ! D251  D(93,44,91,28)          0.2958         estimate D2E/DX2                !
 ! D252  D(93,44,91,76)       -179.783          estimate D2E/DX2                !
 ! D253  D(12,46,85,11)       -179.984          estimate D2E/DX2                !
 ! D254  D(12,46,85,17)         -0.0521         estimate D2E/DX2                !
 ! D255  D(27,46,85,11)          0.0289         estimate D2E/DX2                !
 ! D256  D(27,46,85,17)        179.9607         estimate D2E/DX2                !
 ! D257  D(18,47,51,31)        179.3193         estimate D2E/DX2                !
 ! D258  D(18,47,51,71)         -0.5771         estimate D2E/DX2                !
 ! D259  D(32,47,51,31)         -0.7785         estimate D2E/DX2                !
 ! D260  D(32,47,51,71)        179.325          estimate D2E/DX2                !
 ! D261  D(15,50,86,19)         -0.7617         estimate D2E/DX2                !
 ! D262  D(15,50,86,20)        179.3402         estimate D2E/DX2                !
 ! D263  D(80,50,86,19)        179.3555         estimate D2E/DX2                !
 ! D264  D(80,50,86,20)         -0.5426         estimate D2E/DX2                !
 ! D265  D(3,54,62,33)         178.8486         estimate D2E/DX2                !
 ! D266  D(3,54,62,34)          -1.1083         estimate D2E/DX2                !
 ! D267  D(13,54,62,33)         -1.1522         estimate D2E/DX2                !
 ! D268  D(13,54,62,34)        178.8908         estimate D2E/DX2                !
 ! D269  D(1,75,76,60)        -179.9833         estimate D2E/DX2                !
 ! D270  D(1,75,76,91)           0.0346         estimate D2E/DX2                !
 ! D271  D(43,75,76,60)          0.0103         estimate D2E/DX2                !
 ! D272  D(43,75,76,91)       -179.9718         estimate D2E/DX2                !
 ! D273  D(60,76,91,28)        179.9565         estimate D2E/DX2                !
 ! D274  D(60,76,91,44)          0.0325         estimate D2E/DX2                !
 ! D275  D(75,76,91,28)         -0.0616         estimate D2E/DX2                !
 ! D276  D(75,76,91,44)       -179.9856         estimate D2E/DX2                !
 ! D277  D(2,84,92,17)         179.955          estimate D2E/DX2                !
 ! D278  D(2,84,92,37)           0.0363         estimate D2E/DX2                !
 ! D279  D(12,84,92,17)         -0.0569         estimate D2E/DX2                !
 ! D280  D(12,84,92,37)       -179.9757         estimate D2E/DX2                !
 --------------------------------------------------------------------------------
 Trust Radius=3.00D-01 FncErr=5.00D-06 GrdErr=5.00D-06 EigMax=2.50D+02 EigMin=1.00D-04
 Number of steps in this run=    576 maximum allowed number of steps=    576.
 GradGradGradGradGradGradGradGradGradGradGradGradGradGradGradGradGradGrad

 Stoichiometry    C48H42N2O4
 Framework group  C1[X(C48H42N2O4)]
 Deg. of freedom   282
 Full point group                 C1      NOp   1
 Largest Abelian subgroup         C1      NOp   1
 Largest concise Abelian subgroup C1      NOp   1
                         Standard orientation:                         
 ---------------------------------------------------------------------
 Center     Atomic      Atomic             Coordinates (Angstroms)
 Number     Number       Type             X           Y           Z
 ---------------------------------------------------------------------
      1          6           0       -9.332139   -1.202264   -0.059832
      2          1           0        9.887203    2.151107   -0.106323
      3          6           0        1.487999    0.018567    2.444292
      4          6           0       -7.925568   -1.233478   -0.060721
      5          6           0       -0.737597    0.000459   -1.255145
      6          1           0       -6.813153   -4.215122   -1.542836
      7          6           0        3.597809    0.016009    1.234436
      8          1           0       -6.821135   -4.353713    1.111163
      9          1           0       -7.223717   -2.684564   -2.312591
     10          1           0       -8.479254   -3.653930   -1.545332
     11          6           0        7.167003   -2.581544    0.127518
     12          6           0       10.021661    0.009746   -0.000259
     13          6           0        1.440138   -0.005654    0.000022
     14          6           0       -3.597796    0.015979   -1.234452
     15          7           0        5.756990   -0.001009    0.000112
     16          6           0        0.737644   -0.012564   -1.255114
     17          6           0        7.236449    0.002646    0.000026
     18          6           0       -2.889902   -0.039406    2.436883
     19          6           0        2.877194   -0.004771    0.000066
     20          6           0        2.889961   -0.039522   -2.436878
     21          8           0        5.746912    0.057211    2.294260
     22          6           0       -5.092430    0.026570   -1.243740
     23          8           0       -5.746922    0.056745   -2.294283
     24          6           0        7.431932    3.468736    1.118054
     25          1           0       11.110995    0.012521   -0.000403
     26          1           0       -8.486673   -3.793943    1.165322
     27          1           0        9.898157   -2.132274    0.105815
     28          6           0       -7.236424    0.002693   -0.000052
     29          6           0        7.448989   -3.461961   -1.118471
     30          6           0        2.889702    0.029269    2.437038
     31          7           0       -5.756984   -0.001030   -0.000095
     32          6           0       -2.877238   -0.004776   -0.000075
     33          6           0       -1.440109   -0.005672   -0.000040
     34          6           0       -1.488152   -0.030539    2.444209
     35          6           0       -1.487902    0.018703   -2.444325
     36          6           0       -7.448942   -3.461571    1.118639
     37          6           0        7.153808    2.586499   -0.127546
     38          1           0       -3.438686    0.046770   -3.377510
     39          1           0        7.220451    2.917894    2.034459
     40          1           0        8.467873    3.806797    1.163684
     41          6           0       -7.167153   -2.581481   -0.127628
     42          1           0       -9.898288   -2.131997   -0.106177
     43          1           0      -11.110977    0.012884    0.000267
     44          6           0       -7.153638    2.586550    0.127647
     45          6           0        7.441596   -3.327367    1.460200
     46          6           0        9.332070   -1.202480    0.059622
     47          6           0       -3.597901   -0.024550    1.234307
     48          1           0        3.438704    0.046548    3.377538
     49          1           0        0.991107    0.026527    3.412930
     50          6           0        5.092548   -0.031252   -1.243530
     51          6           0       -5.092554   -0.031532    1.243519
     52          1           0        6.071875    2.362083   -0.111706
     53          1           0        7.207939    2.688727   -2.312602
     54          6           0        0.737524    0.000415    1.255190
     55          6           0       -2.889825    0.029430   -2.436970
     56          1           0        7.234457   -2.911893   -2.034620
     57          1           0        6.790673    4.217718   -1.543267
     58          6           0       -7.423862    3.333457    1.460605
     59          1           0       -6.084085   -2.362557   -0.112700
     60          1           0       -9.887055    2.151392    0.106477
     61          6           0        1.488053   -0.030704   -2.444237
     62          6           0       -0.737637   -0.012523    1.255158
     63          1           0        6.799237    4.357413    1.110658
     64          1           0       -6.790181    4.217645    1.543455
     65          1           0       -7.208628    2.688929    2.312712
     66          1           0       -8.459302    3.665383    1.546453
     67          1           0       -7.220204    2.917736   -2.034425
     68          1           0       -8.467460    3.806951   -1.163694
     69          1           0       -0.991334   -0.039484    3.412868
     70          1           0       -3.438944   -0.056119    3.377388
     71          8           0       -5.747191   -0.060883    2.294008
     72          1           0       -0.991135    0.026832   -3.412867
     73          6           0       -7.431565    3.468711   -1.118060
     74          1           0       -6.798715    4.357289   -1.110722
     75          6           0      -10.021653    0.010025    0.000134
     76          6           0       -9.325784    1.218673    0.060065
     77          1           0        8.478765   -3.653965    1.545534
     78          6           0        7.423904    3.333188   -1.460649
     79          1           0       -7.233678   -2.911441    2.034580
     80          8           0        5.747162   -0.059974   -2.294018
     81          1           0        6.083956   -2.362561    0.112350
     82          1           0        3.438895   -0.056283   -3.377364
     83          1           0        6.820756   -4.353797   -1.111145
     84          6           0        9.325884    1.218459   -0.059977
     85          6           0        7.925509   -1.233585    0.060556
     86          6           0        3.597904   -0.024468   -1.234260
     87          1           0        0.991309   -0.039800   -3.412813
     88          6           0       -7.442022   -3.327518   -1.460113
     89          1           0        6.812539   -4.214837    1.543029
     90          1           0        7.223372   -2.684199    2.312533
     91          6           0       -7.919065    1.242504    0.060663
     92          6           0        7.919172    1.242395   -0.060570
     93          1           0       -6.071717    2.362079    0.111960
     94          6           0        5.092442    0.026670    1.243733
     95          1           0        8.486586   -3.794831   -1.164600
     96          1           0        8.459491    3.664539   -1.546951
 ---------------------------------------------------------------------
 Rotational constants (GHZ):           0.1488901           0.0180561           0.0177503
 Standard basis: def2SVP (5D, 7F)
 There are  1020 symmetry adapted cartesian basis functions of A   symmetry.
 There are   966 symmetry adapted basis functions of A   symmetry.
   966 basis functions,  1644 primitive gaussians,  1020 cartesian basis functions
   188 alpha electrons      188 beta electrons
       nuclear repulsion energy      6741.1213281847 Hartrees.
 NAtoms=   96 NActive=   96 NUniq=   96 SFac= 1.00D+00 NAtFMM=   60 NAOKFM=T Big=T
 Integral buffers will be    131072 words long.
 Raffenetti 2 integral format.
 Two-electron integral symmetry is turned on.
 Nuclear repulsion after empirical dispersion term =     6741.0268166434 Hartrees.
 ------------------------------------------------------------------------------
 Polarizable Continuum Model (PCM)
 =================================
 Model                : PCM.
 Atomic radii         : SMD-Coulomb.
 Polarization charges : Total charges.
 Charge compensation  : None.
 Solution method      : On-the-fly selection.
 Cavity type          : VdW (van der Waals Surface) (Alpha=1.000).
 Cavity algorithm     : GePol (No added spheres)
                        Default sphere list used, NSphG=   96.
                        Lebedev-Laikov grids with approx.  5.0 points / Ang**2.
                        Smoothing algorithm: York/Karplus (Gamma=1.0000).
                        Polarization charges: spherical gaussians, with
                                              point-specific exponents (IZeta= 3).
                        Self-potential: point-specific (ISelfS= 7).
                        Self-field    : sphere-specific E.n sum rule (ISelfD= 2).
 1st derivatives      : Analytical E(r).r(x)/FMM algorithm (CHGder, D1EAlg=3).
                        Cavity 1st derivative terms included.
 Solvent              : Water, Eps=  78.355300 Eps(inf)=   1.777849
 ------------------------------------------------------------------------------
 ------------------------------------------------------------------------------
 Atomic radii for non-electrostatic terms: SMD-CDS.
 ------------------------------------------------------------------------------
 Nuclear repulsion after PCM non-electrostatic terms =     6741.0534649608 Hartrees.
 One-electron integrals computed using PRISM.
   1 Symmetry operations used in ECPInt.
 ECPInt:  NShTT=  101475 NPrTT=  369339 LenC2=   62298 LenP2D=  142526.
 LDataN:  DoStor=T MaxTD1= 4 Len=   56
 NBasis=   966 RedAO= T EigKep=  1.15D-04  NBF=   966
 NBsUse=   966 1.00D-06 EigRej= -1.00D+00 NBFU=   966
 ExpMin= 1.22D-01 ExpMax= 2.27D+03 ExpMxC= 3.41D+02 IAcc=3 IRadAn=         5 AccDes= 0.00D+00
 Harris functional with IExCor= 4639 and IRadAn=       5 diagonalized for initial guess.
 HarFok:  IExCor= 4639 AccDes= 0.00D+00 IRadAn=         5 IDoV= 1 UseB2=F ITyADJ=14
 ICtDFT=  3500011 ScaDFX=  1.000000  1.000000  1.000000  1.000000
 FoFCou: FMM=F IPFlag=           0 FMFlag=      100000 FMFlg1=        2001
         NFxFlg=           0 DoJE=T BraDBF=F KetDBF=T FulRan=T
         wScrn=  0.000000 ICntrl=       500 IOpCl=  0 I1Cent=   200000004 NGrid=           0
         NMat0=    1 NMatS0=      1 NMatT0=    0 NMatD0=    1 NMtDS0=    0 NMtDT0=    0
 Petite list used in FoFCou.
 Requested convergence on RMS density matrix=1.00D-08 within 128 cycles.
 Requested convergence on MAX density matrix=1.00D-06.
 Requested convergence on             energy=1.00D-06.
 No special actions if energy rises.
 Inv3:  Mode=1 IEnd=   138475308.
 Iteration    1 A*A^-1 deviation from unit magnitude is 4.22D-15 for   6257.
 Iteration    1 A*A^-1 deviation from orthogonality  is 3.00D-15 for   6567   4991.
 Iteration    1 A^-1*A deviation from unit magnitude is 4.22D-15 for   6257.
 Iteration    1 A^-1*A deviation from orthogonality  is 7.86D-13 for   6640   6602.
 Error on total polarization charges =  0.08558
 SCF Done:  E(RwB97XD) =  -2262.67334754     A.U. after   13 cycles
            NFock= 13  Conv=0.83D-08     -V/T= 2.0118
 SMD-CDS (non-electrostatic) energy       (kcal/mol) =      16.72
 (included in total energy above)

 **********************************************************************

            Population analysis using the SCF density.

 **********************************************************************

 Orbital symmetries:
       Occupied  (A) (A) (A) (A) (A) (A) (A) (A) (A) (A) (A) (A)
                 (A) (A) (A) (A) (A) (A) (A) (A) (A) (A) (A) (A)
                 (A) (A) (A) (A) (A) (A) (A) (A) (A) (A) (A) (A)
                 (A) (A) (A) (A) (A) (A) (A) (A) (A) (A) (A) (A)
                 (A) (A) (A) (A) (A) (A) (A) (A) (A) (A) (A) (A)
                 (A) (A) (A) (A) (A) (A) (A) (A) (A) (A) (A) (A)
                 (A) (A) (A) (A) (A) (A) (A) (A) (A) (A) (A) (A)
                 (A) (A) (A) (A) (A) (A) (A) (A) (A) (A) (A) (A)
                 (A) (A) (A) (A) (A) (A) (A) (A) (A) (A) (A) (A)
                 (A) (A) (A) (A) (A) (A) (A) (A) (A) (A) (A) (A)
                 (A) (A) (A) (A) (A) (A) (A) (A) (A) (A) (A) (A)
                 (A) (A) (A) (A) (A) (A) (A) (A) (A) (A) (A) (A)
                 (A) (A) (A) (A) (A) (A) (A) (A) (A) (A) (A) (A)
                 (A) (A) (A) (A) (A) (A) (A) (A) (A) (A) (A) (A)
                 (A) (A) (A) (A) (A) (A) (A) (A) (A) (A) (A) (A)
                 (A) (A) (A) (A) (A) (A) (A) (A)
       Virtual   (A) (A) (A) (A) (A) (A) (A) (A) (A) (A) (A) (A)
                 (A) (A) (A) (A) (A) (A) (A) (A) (A) (A) (A) (A)
                 (A) (A) (A) (A) (A) (A) (A) (A) (A) (A) (A) (A)
                 (A) (A) (A) (A) (A) (A) (A) (A) (A) (A) (A) (A)
                 (A) (A) (A) (A) (A) (A) (A) (A) (A) (A) (A) (A)
                 (A) (A) (A) (A) (A) (A) (A) (A) (A) (A) (A) (A)
                 (A) (A) (A) (A) (A) (A) (A) (A) (A) (A) (A) (A)
                 (A) (A) (A) (A) (A) (A) (A) (A) (A) (A) (A) (A)
                 (A) (A) (A) (A) (A) (A) (A) (A) (A) (A) (A) (A)
                 (A) (A) (A) (A) (A) (A) (A) (A) (A) (A) (A) (A)
                 (A) (A) (A) (A) (A) (A) (A) (A) (A) (A) (A) (A)
                 (A) (A) (A) (A) (A) (A) (A) (A) (A) (A) (A) (A)
                 (A) (A) (A) (A) (A) (A) (A) (A) (A) (A) (A) (A)
                 (A) (A) (A) (A) (A) (A) (A) (A) (A) (A) (A) (A)
                 (A) (A) (A) (A) (A) (A) (A) (A) (A) (A) (A) (A)
                 (A) (A) (A) (A) (A) (A) (A) (A) (A) (A) (A) (A)
                 (A) (A) (A) (A) (A) (A) (A) (A) (A) (A) (A) (A)
                 (A) (A) (A) (A) (A) (A) (A) (A) (A) (A) (A) (A)
                 (A) (A) (A) (A) (A) (A) (A) (A) (A) (A) (A) (A)
                 (A) (A) (A) (A) (A) (A) (A) (A) (A) (A) (A) (A)
                 (A) (A) (A) (A) (A) (A) (A) (A) (A) (A) (A) (A)
                 (A) (A) (A) (A) (A) (A) (A) (A) (A) (A) (A) (A)
                 (A) (A) (A) (A) (A) (A) (A) (A) (A) (A) (A) (A)
                 (A) (A) (A) (A) (A) (A) (A) (A) (A) (A) (A) (A)
                 (A) (A) (A) (A) (A) (A) (A) (A) (A) (A) (A) (A)
                 (A) (A) (A) (A) (A) (A) (A) (A) (A) (A) (A) (A)
                 (A) (A) (A) (A) (A) (A) (A) (A) (A) (A) (A) (A)
                 (A) (A) (A) (A) (A) (A) (A) (A) (A) (A) (A) (A)
                 (A) (A) (A) (A) (A) (A) (A) (A) (A) (A) (A) (A)
                 (A) (A) (A) (A) (A) (A) (A) (A) (A) (A) (A) (A)
                 (A) (A) (A) (A) (A) (A) (A) (A) (A) (A) (A) (A)
                 (A) (A) (A) (A) (A) (A) (A) (A) (A) (A) (A) (A)
                 (A) (A) (A) (A) (A) (A) (A) (A) (A) (A) (A) (A)
                 (A) (A) (A) (A) (A) (A) (A) (A) (A) (A) (A) (A)
                 (A) (A) (A) (A) (A) (A) (A) (A) (A) (A) (A) (A)
                 (A) (A) (A) (A) (A) (A) (A) (A) (A) (A) (A) (A)
                 (A) (A) (A) (A) (A) (A) (A) (A) (A) (A) (A) (A)
                 (A) (A) (A) (A) (A) (A) (A) (A) (A) (A) (A) (A)
                 (A) (A) (A) (A) (A) (A) (A) (A) (A) (A) (A) (A)
                 (A) (A) (A) (A) (A) (A) (A) (A) (A) (A) (A) (A)
                 (A) (A) (A) (A) (A) (A) (A) (A) (A) (A) (A) (A)
                 (A) (A) (A) (A) (A) (A) (A) (A) (A) (A) (A) (A)
                 (A) (A) (A) (A) (A) (A) (A) (A) (A) (A) (A) (A)
                 (A) (A) (A) (A) (A) (A) (A) (A) (A) (A) (A) (A)
                 (A) (A) (A) (A) (A) (A) (A) (A) (A) (A) (A) (A)
                 (A) (A) (A) (A) (A) (A) (A) (A) (A) (A) (A) (A)
                 (A) (A) (A) (A) (A) (A) (A) (A) (A) (A) (A) (A)
                 (A) (A) (A) (A) (A) (A) (A) (A) (A) (A) (A) (A)
                 (A) (A) (A) (A) (A) (A) (A) (A) (A) (A) (A) (A)
                 (A) (A) (A) (A) (A) (A) (A) (A) (A) (A) (A) (A)
                 (A) (A) (A) (A) (A) (A) (A) (A) (A) (A) (A) (A)
                 (A) (A) (A) (A) (A) (A) (A) (A) (A) (A) (A) (A)
                 (A) (A) (A) (A) (A) (A) (A) (A) (A) (A) (A) (A)
                 (A) (A) (A) (A) (A) (A) (A) (A) (A) (A) (A) (A)
                 (A) (A) (A) (A) (A) (A) (A) (A) (A) (A) (A) (A)
                 (A) (A) (A) (A) (A) (A) (A) (A) (A) (A) (A) (A)
                 (A) (A) (A) (A) (A) (A) (A) (A) (A) (A) (A) (A)
                 (A) (A) (A) (A) (A) (A) (A) (A) (A) (A) (A) (A)
                 (A) (A) (A) (A) (A) (A) (A) (A) (A) (A) (A) (A)
                 (A) (A) (A) (A) (A) (A) (A) (A) (A) (A) (A) (A)
                 (A) (A) (A) (A) (A) (A) (A) (A) (A) (A) (A) (A)
                 (A) (A) (A) (A) (A) (A) (A) (A) (A) (A) (A) (A)
                 (A) (A) (A) (A) (A) (A) (A) (A) (A) (A) (A) (A)
                 (A) (A) (A) (A) (A) (A) (A) (A) (A) (A) (A) (A)
                 (A) (A) (A) (A) (A) (A) (A) (A) (A) (A)
 The electronic state is 1-A.
 Alpha  occ. eigenvalues --  -19.26083 -19.26082 -19.26081 -19.26081 -14.51759
 Alpha  occ. eigenvalues --  -14.51758 -10.44259 -10.44258 -10.44251 -10.44250
 Alpha  occ. eigenvalues --  -10.35256 -10.35256 -10.34864 -10.34847 -10.34847
 Alpha  occ. eigenvalues --  -10.34835 -10.34637 -10.34635 -10.34287 -10.34277
 Alpha  occ. eigenvalues --  -10.33801 -10.33799 -10.33797 -10.33796 -10.33251
 Alpha  occ. eigenvalues --  -10.33250 -10.33249 -10.33248 -10.32604 -10.32598
 Alpha  occ. eigenvalues --  -10.32589 -10.32588 -10.31904 -10.31904 -10.31901
 Alpha  occ. eigenvalues --  -10.31900 -10.30765 -10.30765 -10.30765 -10.30764
 Alpha  occ. eigenvalues --  -10.30544 -10.30543 -10.30223 -10.30222 -10.30222
 Alpha  occ. eigenvalues --  -10.30222 -10.28139 -10.28138 -10.28138 -10.28138
 Alpha  occ. eigenvalues --  -10.28135 -10.28134 -10.28134 -10.28134  -1.16520
 Alpha  occ. eigenvalues --   -1.16520  -1.14439  -1.14438  -1.04657  -1.04647
 Alpha  occ. eigenvalues --   -1.01567  -0.99220  -0.95976  -0.95646  -0.95577
 Alpha  occ. eigenvalues --   -0.93586  -0.93456  -0.90118  -0.90118  -0.88634
 Alpha  occ. eigenvalues --   -0.87798  -0.87519  -0.87339  -0.86697  -0.85404
 Alpha  occ. eigenvalues --   -0.83914  -0.83086  -0.83064  -0.81531  -0.81530
 Alpha  occ. eigenvalues --   -0.78921  -0.77620  -0.76933  -0.76925  -0.76912
 Alpha  occ. eigenvalues --   -0.76912  -0.75991  -0.74946  -0.73982  -0.73887
 Alpha  occ. eigenvalues --   -0.72107  -0.72098  -0.71986  -0.71073  -0.70556
 Alpha  occ. eigenvalues --   -0.68426  -0.67537  -0.67117  -0.66902  -0.64633
 Alpha  occ. eigenvalues --   -0.63985  -0.63949  -0.62658  -0.62658  -0.62185
 Alpha  occ. eigenvalues --   -0.62056  -0.59564  -0.59436  -0.59303  -0.59294
 Alpha  occ. eigenvalues --   -0.59000  -0.57926  -0.57372  -0.56948  -0.55959
 Alpha  occ. eigenvalues --   -0.55442  -0.54887  -0.54796  -0.54527  -0.54304
 Alpha  occ. eigenvalues --   -0.54163  -0.53666  -0.52931  -0.52595  -0.52544
 Alpha  occ. eigenvalues --   -0.52313  -0.52174  -0.52038  -0.51796  -0.51783
 Alpha  occ. eigenvalues --   -0.51722  -0.50922  -0.50628  -0.50621  -0.50595
 Alpha  occ. eigenvalues --   -0.50553  -0.50171  -0.50075  -0.49666  -0.49580
 Alpha  occ. eigenvalues --   -0.48973  -0.48837  -0.48808  -0.48649  -0.47956
 Alpha  occ. eigenvalues --   -0.46598  -0.46595  -0.46288  -0.46285  -0.46254
 Alpha  occ. eigenvalues --   -0.46239  -0.46150  -0.46144  -0.45660  -0.45322
 Alpha  occ. eigenvalues --   -0.44545  -0.44506  -0.44499  -0.42751  -0.42749
 Alpha  occ. eigenvalues --   -0.42463  -0.42270  -0.42228  -0.42122  -0.42104
 Alpha  occ. eigenvalues --   -0.41421  -0.41418  -0.41017  -0.40963  -0.40188
 Alpha  occ. eigenvalues --   -0.40171  -0.39606  -0.39590  -0.38766  -0.38639
 Alpha  occ. eigenvalues --   -0.37177  -0.37159  -0.37148  -0.37000  -0.35442
 Alpha  occ. eigenvalues --   -0.35387  -0.34829  -0.34458  -0.33327  -0.33325
 Alpha  occ. eigenvalues --   -0.32140  -0.32129  -0.28092
 Alpha virt. eigenvalues --   -0.07882  -0.01076  -0.00256   0.01932   0.03866
 Alpha virt. eigenvalues --    0.04906   0.04958   0.05087   0.05109   0.05327
 Alpha virt. eigenvalues --    0.05462   0.08632   0.12303   0.14033   0.14071
 Alpha virt. eigenvalues --    0.14918   0.15205   0.15400   0.15400   0.15655
 Alpha virt. eigenvalues --    0.16057   0.16432   0.18170   0.18258   0.18612
 Alpha virt. eigenvalues --    0.18825   0.18932   0.18966   0.18979   0.18981
 Alpha virt. eigenvalues --    0.19080   0.19830   0.19918   0.20292   0.20311
 Alpha virt. eigenvalues --    0.20394   0.20741   0.20761   0.21592   0.21679
 Alpha virt. eigenvalues --    0.21692   0.21795   0.21869   0.22536   0.22727
 Alpha virt. eigenvalues --    0.22769   0.23755   0.23845   0.24299   0.24506
 Alpha virt. eigenvalues --    0.25118   0.25121   0.25737   0.25845   0.25925
 Alpha virt. eigenvalues --    0.25928   0.25928   0.25992   0.26548   0.26786
 Alpha virt. eigenvalues --    0.26825   0.27002   0.27100   0.27396   0.27622
 Alpha virt. eigenvalues --    0.27654   0.28053   0.28634   0.29544   0.29828
 Alpha virt. eigenvalues --    0.30002   0.30072   0.30289   0.30604   0.31102
 Alpha virt. eigenvalues --    0.31373   0.31609   0.31914   0.31919   0.31919
 Alpha virt. eigenvalues --    0.32246   0.32341   0.32689   0.32764   0.32800
 Alpha virt. eigenvalues --    0.34084   0.34084   0.34438   0.34716   0.35208
 Alpha virt. eigenvalues --    0.35614   0.35846   0.36011   0.36495   0.36539
 Alpha virt. eigenvalues --    0.37107   0.37121   0.37672   0.37723   0.38187
 Alpha virt. eigenvalues --    0.38188   0.38551   0.38889   0.39290   0.39623
 Alpha virt. eigenvalues --    0.40337   0.40587   0.40591   0.40660   0.41132
 Alpha virt. eigenvalues --    0.41534   0.41671   0.42452   0.42881   0.45352
 Alpha virt. eigenvalues --    0.45755   0.45756   0.46066   0.46166   0.47401
 Alpha virt. eigenvalues --    0.47502   0.48246   0.48502   0.49346   0.49354
 Alpha virt. eigenvalues --    0.49383   0.49399   0.49487   0.50039   0.50481
 Alpha virt. eigenvalues --    0.50889   0.51165   0.51351   0.51419   0.51957
 Alpha virt. eigenvalues --    0.52055   0.52194   0.52267   0.52507   0.52631
 Alpha virt. eigenvalues --    0.52687   0.52806   0.53210   0.53365   0.53425
 Alpha virt. eigenvalues --    0.53658   0.53665   0.53674   0.53880   0.53958
 Alpha virt. eigenvalues --    0.54236   0.54511   0.54607   0.54975   0.56555
 Alpha virt. eigenvalues --    0.56727   0.57215   0.57336   0.57469   0.58909
 Alpha virt. eigenvalues --    0.59034   0.59473   0.59788   0.60192   0.60319
[...]
 Alpha virt. eigenvalues --    0.54638   0.55257   0.55480   0.55514   0.56775
 Alpha virt. eigenvalues --    0.56803   0.57419   0.57510   0.57937   0.59017
 Alpha virt. eigenvalues --    0.59141   0.60214   0.60402   0.60548   0.61015
 Alpha virt. eigenvalues --    0.61357   0.61652   0.62444   0.62542   0.63300
 Alpha virt. eigenvalues --    0.63490   0.65013   0.65151   0.65302   0.65390
 Alpha virt. eigenvalues --    0.65953   0.66137   0.66730   0.66733   0.66766
 Alpha virt. eigenvalues --    0.67025   0.67525   0.67610   0.67650   0.67795
 Alpha virt. eigenvalues --    0.68177   0.68923   0.69357   0.69630   0.70276
 Alpha virt. eigenvalues --    0.70822   0.70928   0.70995   0.71023   0.71078
 Alpha virt. eigenvalues --    0.71482   0.71562   0.71661   0.71938   0.72010
 Alpha virt. eigenvalues --    0.72068   0.72166   0.72444   0.72815   0.73065
 Alpha virt. eigenvalues --    0.73161   0.73227   0.73618   0.73671   0.74154
 Alpha virt. eigenvalues --    0.74229   0.74252   0.74511   0.74684   0.74731
 Alpha virt. eigenvalues --    0.74894   0.75271   0.75373   0.75502   0.76053
 Alpha virt. eigenvalues --    0.76073   0.76589   0.76591   0.76961   0.77023
 Alpha virt. eigenvalues --    0.77222   0.77374   0.77517   0.77535   0.78088
 Alpha virt. eigenvalues --    0.78142   0.78193   0.78364   0.78423   0.78954
 Alpha virt. eigenvalues --    0.79020   0.79022   0.79346   0.79389   0.79653
 Alpha virt. eigenvalues --    0.80191   0.80215   0.80227   0.80344   0.80353
 Alpha virt. eigenvalues --    0.80514   0.80677   0.80811   0.81436   0.81546
 Alpha virt. eigenvalues --    0.81570   0.81948   0.82412   0.82456   0.82981
 Alpha virt. eigenvalues --    0.83266   0.84014   0.84256   0.84475   0.84681
 Alpha virt. eigenvalues --    0.84779   0.84838   0.85087   0.85221   0.85602
 Alpha virt. eigenvalues --    0.85715   0.85835   0.85979   0.85980   0.87022
 Alpha virt. eigenvalues --    0.87231   0.87779   0.87981   0.88007   0.88579
 Alpha virt. eigenvalues --    0.88913   0.89363   0.89526   0.89609   0.90272
 Alpha virt. eigenvalues --    0.90665   0.91044   0.91046   0.91280   0.91702
 Alpha virt. eigenvalues --    0.91827   0.92208   0.92355   0.92444   0.92608
 Alpha virt. eigenvalues --    0.93535   0.94645   0.95629   0.96206   0.96316
 Alpha virt. eigenvalues --    0.96361   0.97344   0.97633   0.98298   0.98935
 Alpha virt. eigenvalues --    1.00834   1.02228   1.02233   1.02474   1.02690
 Alpha virt. eigenvalues --    1.02753   1.03406   1.04389   1.04991   1.08348
 Alpha virt. eigenvalues --    1.08839   1.08998   1.09186   1.10193   1.10318
 Alpha virt. eigenvalues --    1.10795   1.11750   1.12086   1.12314   1.13938
 Alpha virt. eigenvalues --    1.14440   1.14622   1.15479   1.15578   1.15950
 Alpha virt. eigenvalues --    1.16404   1.16486   1.17778   1.17954   1.18216
 Alpha virt. eigenvalues --    1.18485   1.19658   1.19873   1.20337   1.21487
 Alpha virt. eigenvalues --    1.21672   1.21782   1.22948   1.22981   1.22992
 Alpha virt. eigenvalues --    1.23462   1.23837   1.24392   1.24736   1.25380
 Alpha virt. eigenvalues --    1.26092   1.27360   1.27490   1.28595   1.28949
 Alpha virt. eigenvalues --    1.29707   1.30164   1.30185   1.30237   1.30784
 Alpha virt. eigenvalues --    1.31054   1.31423   1.31552   1.32765   1.32897
 Alpha virt. eigenvalues --    1.32915   1.33077   1.33922   1.34016   1.34632
 Alpha virt. eigenvalues --    1.34810   1.34893   1.35236   1.35938   1.36018
 Alpha virt. eigenvalues --    1.36583   1.36837   1.37116   1.37706   1.37742
 Alpha virt. eigenvalues --    1.37901   1.38023   1.39580   1.40304   1.40454
 Alpha virt. eigenvalues --    1.41652   1.41871   1.42281   1.42369   1.42681
 Alpha virt. eigenvalues --    1.42744   1.42839   1.45001   1.45647   1.46811
 Alpha virt. eigenvalues --    1.47173   1.47343   1.47349   1.47668   1.47854
 Alpha virt. eigenvalues --    1.48362   1.48364   1.49005   1.49409   1.49706
 Alpha virt. eigenvalues --    1.51622   1.51719   1.52154   1.52445   1.52529
 Alpha virt. eigenvalues --    1.52612   1.55489   1.55496   1.56981   1.57180
 Alpha virt. eigenvalues --    1.57216   1.58147   1.59279   1.61330   1.61709
 Alpha virt. eigenvalues --    1.62346   1.62365   1.62374   1.62456   1.62937
 Alpha virt. eigenvalues --    1.63330   1.63345   1.64493   1.64494   1.64613
 Alpha virt. eigenvalues --    1.64816   1.65279   1.65637   1.66143   1.70094
 Alpha virt. eigenvalues --    1.70704   1.70734   1.72593   1.73659   1.73712
 Alpha virt. eigenvalues --    1.73734   1.74002   1.74078   1.74440   1.75677
 Alpha virt. eigenvalues --    1.76184   1.76694   1.77060   1.77257   1.78008
 Alpha virt. eigenvalues --    1.78238   1.78267   1.78565   1.78580   1.79389
 Alpha virt. eigenvalues --    1.79402   1.79764   1.79784   1.79881   1.79907
 Alpha virt. eigenvalues --    1.80055   1.80361   1.80403   1.80701   1.80888
 Alpha virt. eigenvalues --    1.81248   1.81658   1.81874   1.82232   1.82337
 Alpha virt. eigenvalues --    1.82811   1.83098   1.83763   1.84227   1.84508
 Alpha virt. eigenvalues --    1.84581   1.84606   1.85194   1.85682   1.86353
 Alpha virt. eigenvalues --    1.86556   1.86603   1.86671   1.86927   1.87009
 Alpha virt. eigenvalues --    1.87161   1.87191   1.87837   1.88622   1.88891
 Alpha virt. eigenvalues --    1.88903   1.88917   1.89150   1.89239   1.90136
 Alpha virt. eigenvalues --    1.90516   1.90565   1.90567   1.90657   1.90750
 Alpha virt. eigenvalues --    1.90857   1.91232   1.91373   1.93045   1.93125
 Alpha virt. eigenvalues --    1.93252   1.93274   1.93379   1.93485   1.93809
 Alpha virt. eigenvalues --    1.94620   1.94877   1.95130   1.97253   1.97650
 Alpha virt. eigenvalues --    1.97685   1.97711   1.97824   1.97840   1.97946
 Alpha virt. eigenvalues --    1.97948   1.99827   2.00249   2.00276   2.00374
 Alpha virt. eigenvalues --    2.01124   2.01366   2.01409   2.01767   2.02353
 Alpha virt. eigenvalues --    2.02696   2.02896   2.03177   2.03698   2.03820
 Alpha virt. eigenvalues --    2.04328   2.04540   2.04685   2.05050   2.05243
 Alpha virt. eigenvalues --    2.05247   2.05349   2.05353   2.05899   2.05900
 Alpha virt. eigenvalues --    2.06167   2.07473   2.08140   2.08310   2.08330
 Alpha virt. eigenvalues --    2.08332   2.08648   2.10599   2.10606   2.11033
 Alpha virt. eigenvalues --    2.11063   2.11251   2.12371   2.12710   2.13157
 Alpha virt. eigenvalues --    2.13178   2.14191   2.14383   2.14716   2.15526
 Alpha virt. eigenvalues --    2.15983   2.16331   2.16552   2.16844   2.17135
 Alpha virt. eigenvalues --    2.17214   2.18714   2.19018   2.19589   2.19680
 Alpha virt. eigenvalues --    2.20366   2.21327   2.21645   2.22444   2.22624
 Alpha virt. eigenvalues --    2.23239   2.23329   2.23331   2.23589   2.26519
 Alpha virt. eigenvalues --    2.26751   2.26760   2.26783   2.29376   2.29580
 Alpha virt. eigenvalues --    2.29862   2.30006   2.31211   2.31353   2.31641
 Alpha virt. eigenvalues --    2.31763   2.31900   2.32564   2.32705   2.32714
 Alpha virt. eigenvalues --    2.32871   2.33545   2.34522   2.35230   2.35342
 Alpha virt. eigenvalues --    2.35493   2.35807   2.35808   2.36109   2.36551
 Alpha virt. eigenvalues --    2.37362   2.37544   2.37935   2.38321   2.40609
 Alpha virt. eigenvalues --    2.40639   2.41419   2.41449   2.41566   2.41605
 Alpha virt. eigenvalues --    2.41632   2.41780   2.42186   2.43789   2.44627
 Alpha virt. eigenvalues --    2.44785   2.45533   2.45817   2.46039   2.46695
 Alpha virt. eigenvalues --    2.46952   2.46995   2.49224   2.50731   2.51000
 Alpha virt. eigenvalues --    2.51446   2.51733   2.51954   2.52421   2.52434
 Alpha virt. eigenvalues --    2.54910   2.55073   2.55898   2.55954   2.56294
 Alpha virt. eigenvalues --    2.56670   2.57552   2.58741   2.58756   2.59103
 Alpha virt. eigenvalues --    2.59155   2.59189   2.59263   2.61227   2.61672
 Alpha virt. eigenvalues --    2.62615   2.64702   2.64927   2.65291   2.65716
 Alpha virt. eigenvalues --    2.65760   2.65838   2.66105   2.66305   2.67082
 Alpha virt. eigenvalues --    2.67105   2.67184   2.68268   2.68694   2.69099
 Alpha virt. eigenvalues --    2.69105   2.69887   2.69894   2.70828   2.71041
 Alpha virt. eigenvalues --    2.71856   2.71952   2.72131   2.73127   2.73266
 Alpha virt. eigenvalues --    2.73709   2.74315   2.74500   2.74561   2.75559
 Alpha virt. eigenvalues --    2.76065   2.76261   2.76262   2.76684   2.77456
 Alpha virt. eigenvalues --    2.77819   2.78188   2.78303   2.78587   2.79688
 Alpha virt. eigenvalues --    2.81859   2.82297   2.82897   2.83082   2.83911
 Alpha virt. eigenvalues --    2.84028   2.86367   2.86917   2.89064   2.89340
 Alpha virt. eigenvalues --    2.89407   2.89409   2.90674   2.91557   2.91686
 Alpha virt. eigenvalues --    2.92189   2.92403   2.93128   2.94609   2.94651
 Alpha virt. eigenvalues --    2.94735   2.94736   2.96167   2.96260   2.96972
 Alpha virt. eigenvalues --    2.97582   2.97798   2.98885   2.99113   2.99114
 Alpha virt. eigenvalues --    3.01445   3.01446   3.01539   3.01870   3.02023
 Alpha virt. eigenvalues --    3.02216   3.02219   3.02531   3.02897   3.03741
 Alpha virt. eigenvalues --    3.04997   3.05246   3.06104   3.06471   3.08987
 Alpha virt. eigenvalues --    3.09907   3.09908   3.10039   3.11177   3.11180
 Alpha virt. eigenvalues --    3.11327   3.11691   3.13083   3.13224   3.13708
 Alpha virt. eigenvalues --    3.13710   3.14014   3.16747   3.17887   3.18674
 Alpha virt. eigenvalues --    3.20354   3.20363   3.20649   3.20660   3.21618
 Alpha virt. eigenvalues --    3.21793   3.26112   3.26125   3.26150   3.35189
 Alpha virt. eigenvalues --    3.35193   3.36139   3.38698   3.43069   3.45492
 Alpha virt. eigenvalues --    3.47892   3.52468   3.57284   3.57763   3.66794
 Alpha virt. eigenvalues --    3.67729   3.67836   3.70506   3.71532   3.74211
 Alpha virt. eigenvalues --    3.79663   3.80852   3.81071
          Condensed to atoms (all electrons):
 Mulliken charges:
               1
     1  C   -0.115615
     2  H    0.041515
     3  C   -0.099301
     4  C    0.026043
     5  C    0.077472
     6  H    0.045715
     7  C   -0.068978
     8  H    0.045628
     9  H    0.038744
    10  H    0.040632
    11  C   -0.108947
    12  C   -0.006199
    13  C    0.033350
    14  C   -0.068983
    15  N   -0.346154
    16  C    0.077475
    17  C   -0.004076
    18  C   -0.029589
    19  C    0.146143
    20  C   -0.029590
    21  O   -0.299837
    22  C    0.303623
    23  O   -0.299836
    24  C   -0.028618
    25  H    0.045334
    26  H    0.040916
    27  H    0.041514
    28  C   -0.004078
    29  C   -0.028619
    30  C   -0.029590
    31  N   -0.346152
    32  C    0.146136
    33  C    0.033348
    34  C   -0.099302
    35  C   -0.099302
    36  C   -0.028629
    37  C   -0.108945
    38  H    0.051769
    39  H    0.038495
    40  H    0.040912
    41  C   -0.108944
    42  H    0.041515
    43  H    0.045334
    44  C   -0.108942
    45  C   -0.027906
    46  C   -0.115615
    47  C   -0.068983
    48  H    0.051767
    49  H    0.055699
    50  C    0.303622
    51  C    0.303617
    52  H    0.038329
    53  H    0.038757
    54  C    0.077475
    55  C   -0.029588
    56  H    0.038498
    57  H    0.045713
    58  C   -0.027902
    59  H    0.038331
    60  H    0.041516
    61  C   -0.099301
    62  C    0.077473
    63  H    0.045630
    64  H    0.045714
    65  H    0.038746
    66  H    0.040633
    67  H    0.038508
    68  H    0.040914
    69  H    0.055701
    70  H    0.051769
    71  O   -0.299838
    72  H    0.055701
    73  C   -0.028626
    74  H    0.045629
    75  C   -0.006200
    76  C   -0.115615
    77  H    0.040636
    78  C   -0.027910
    79  H    0.038511
    80  O   -0.299838
    81  H    0.038330
    82  H    0.051767
    83  H    0.045630
    84  C   -0.115615
    85  C    0.026043
    86  C   -0.068978
    87  H    0.055699
    88  C   -0.027898
    89  H    0.045714
    90  H    0.038756
    91  C    0.026042
    92  C    0.026044
    93  H    0.038330
    94  C    0.303626
    95  H    0.040913
    96  H    0.040636
 Sum of Mulliken charges =  -0.00000
 Mulliken charges with hydrogens summed into heavy atoms:
               1
     1  C   -0.074100
     3  C   -0.043601
     4  C    0.026043
     5  C    0.077472
     7  C   -0.068978
    11  C   -0.070616
    12  C    0.039135
    13  C    0.033350
    14  C   -0.068983
    15  N   -0.346154
    16  C    0.077475
    17  C   -0.004076
    18  C    0.022180
    19  C    0.146143
    20  C    0.022177
    21  O   -0.299837
    22  C    0.303623
    23  O   -0.299836
    24  C    0.096419
    28  C   -0.004078
    29  C    0.096421
    30  C    0.022178
    31  N   -0.346152
    32  C    0.146136
    33  C    0.033348
    34  C   -0.043601
    35  C   -0.043601
    36  C    0.096426
    37  C   -0.070616
    41  C   -0.070613
    44  C   -0.070612
    45  C    0.097199
    46  C   -0.074101
    47  C   -0.068983
    50  C    0.303622
    51  C    0.303617
    54  C    0.077475
    55  C    0.022181
    58  C    0.097191
    61  C   -0.043601
    62  C    0.077473
    71  O   -0.299838
    73  C    0.096426
    75  C    0.039134
    76  C   -0.074099
    78  C    0.097197
    80  O   -0.299838
    84  C   -0.074100
    85  C    0.026043
    86  C   -0.068978
    88  C    0.097193
    91  C    0.026042
    92  C    0.026044
    94  C    0.303626
 Electronic spatial extent (au):  <R**2>=          57560.5578
 Charge=              0.0000 electrons
 Dipole moment (field-independent basis, Debye):
    X=              0.0002    Y=             -0.0004    Z=             -0.0000  Tot=              0.0005
 Quadrupole moment (field-independent basis, Debye-Ang):
   XX=           -367.8189   YY=           -296.7736   ZZ=           -318.2799
   XY=             -0.0008   XZ=              0.0018   YZ=             -0.0066
 Traceless Quadrupole moment (field-independent basis, Debye-Ang):
   XX=            -40.1948   YY=             30.8506   ZZ=              9.3442
   XY=             -0.0008   XZ=              0.0018   YZ=             -0.0066
 Octapole moment (field-independent basis, Debye-Ang**2):
  XXX=              0.0020  YYY=              0.0023  ZZZ=              0.0003  XYY=             -0.0069
  XXY=             -0.0110  XXZ=             -0.0031  XZZ=              0.0061  YZZ=             -0.0025
  YYZ=             -0.0002  XYZ=             -9.5460
 Hexadecapole moment (field-independent basis, Debye-Ang**3):
 XXXX=         -66097.6514 YYYY=          -5648.9690 ZZZZ=          -3809.0056 XXXY=             -0.0246
 XXXZ=              0.1406 YYYX=              0.0024 YYYZ=             -0.0933 ZZZX=              0.0107
 ZZZY=              0.1978 XXYY=         -11361.8303 XXZZ=         -13915.5825 YYZZ=          -1717.5339
 XXYZ=             -0.9785 YYXZ=              0.0075 ZZXY=             -0.0037
 N-N= 6.820175558042D+03 E-N=-1.888615866414D+04  KE= 2.238035515542D+03
 1\1\GINC-NODE002\FOpt\RwB97XD\def2SVP\C48H42N2O4\PSYCHE\07-Feb-2020\0\
 \# wB97XD/Def2SVP Opt # SCRF=(SMD,Solvent=Water) # Integral=(Grid=Ultr
 aFineGrid)\\Geometry optimisation, Mol: A7\\0,1\C,6.0603379691,2.63314
 60918,6.4977710582\H,-7.1363034356,-2.3954838394,-6.561016386\C,-0.208
 6786235,1.3770077335,-2.4718602009\C,5.2996273081,2.1193501264,5.44294
 65663\C,0.0489787116,-0.6940790795,1.2744299876\H,6.7100633873,-0.8907
 009375,4.4426800235\C,-1.6879240161,-0.3123681029,-3.3574847705\H,7.47
 89697533,1.0671041126,2.9531011114\H,5.4666743326,-0.6131935663,5.6891
 287555\H,7.1176756512,0.021938152,5.9146942704\C,-1.9220959782,-3.8304
 991884,-6.161087282\C,-5.5195740591,-3.5418161811,-7.4036342734\C,-0.8
 047551181,-0.5166123894,-1.0733031828\C,1.6134325241,0.3477569648,3.38
 44270134\N,-3.1744981431,-2.0372010813,-4.2550691915\C,-0.746353913,-1
 .2405708104,0.157924087\C,-3.9780418109,-2.552764086,-5.3339060221\C,2
 .3222775155,2.8491403497,0.7374481354\C,-1.5973737086,-1.0252179121,-2
 .1375336857\C,-2.2106163733,-2.9387250534,-0.7894232272\O,-2.620276581
 2,-0.2530515062,-5.5374897794\C,2.4326833951,0.8680448636,4.4980549198
 \O,2.4870130008,0.3278940902,5.5893505123\C,-6.4393035173,0.0639258141
 ,-5.0716959815\H,-6.1288622485,-3.9327386164,-8.2216907836\H,7.9100360
 322,2.0311624886,4.3848447678\H,-3.7472275345,-4.5882969856,-8.0373249
 939\C,3.9671770839,2.5454322175,5.3338751525\C,-1.7845348646,-5.341235
 8598,-5.9556986\C,-1.003442896,0.8759119019,-3.5115531688\N,3.16368004
 68,2.0298419605,4.2550174987\C,1.5865738368,1.0178472391,2.137475189\C
 ,0.793954238,0.5092423587,1.0732452513\C,1.5323827502,2.361735597,-0.3
 124143171\C,0.0969837293,-1.3166436781,2.5145753593\C,7.0842220414,1.7
 678587778,3.7048814158\C,-5.9558809919,-1.2248944723,-4.4018654298\H,0
 .8898207646,-1.3115966656,4.527112478\H,-5.6145607235,0.5634106304,-5.
 6024923514\H,-7.2429138999,-0.1369640677,-5.7979877476\C,5.9153786561,
 1.1343457045,4.4637624762\H,7.1015294316,2.3212020971,6.6108621058\H,6
 .1179016082,3.9254309242,8.221719674\C,1.9408575982,3.9063840997,6.099
 1397559\C,-1.1308061362,-3.3431455867,-7.3777108979\C,-4.1812278298,-3
 .9096323163,-7.2989239176\C,2.3505801524,2.195417933,1.952399039\H,-1.
 0797141547,1.4244584291,-4.4512462141\H,0.3145256402,2.3169789046,-2.6
 403819945\C,-3.1235812712,-2.7843195155,-3.0793073238\C,3.1790720943,2
 .7324428934,3.0511456913\H,-5.1850355898,-0.9412411236,-3.6710185777\H
 ,-6.7037723127,-2.8333641913,-3.1329114494\C,-0.0873102845,0.705191488
 2,-1.2628168182\C,0.8701657238,-0.8010584671,3.5634174407\H,-2.3401607
 928,-5.6680948688,-5.0635817675\H,-7.4833985266,-1.2552095933,-2.85313
 30768\C,1.8599500755,5.4120581075,5.8341320277\H,5.1510497934,0.868903
 0789,3.7193550593\H,3.7601378715,4.6479436112,7.9875014896\C,-1.442300
 6507,-2.4368328054,0.269587426\C,0.7630793981,1.2147209551,-0.16965191
 26\H,-6.8345326795,0.7631917946,-4.3187834283\H,0.8145951367,5.7187106
 32,5.6751058037\H,2.4364609427,5.6840853873,4.9368527315\H,2.254605306
 2,5.9914878355,6.6839955529\H,1.1695159391,2.4070642544,7.4822931907\H
 ,1.4791958049,3.9930853659,8.2365555623\H,1.540196582,2.9123998687,-1.
 2517735733\H,2.9160770374,3.7533192101,0.597424971\O,3.8544968257,3.74
 09245492,2.939745852\H,-0.4708470178,-2.2266558741,2.7020162935\C,1.11
 81238368,3.4948746037,7.3227396379\H,0.0612027411,3.770749746,7.185381
 7505\C,5.508639922,3.5345019263,7.4036465568\C,4.1836003356,3.93964093
 95,7.2711459522\H,-1.4879850554,-3.8174280303,-8.3057403291\C,-7.07669
 21508,-1.9236267079,-3.6276656214\H,6.7639148633,2.683106454,3.1841575
 799\O,-3.7429894608,-3.8304046654,-2.9916581492\H,-1.489546156,-3.3420
 751376,-5.2761333908\H,-2.7478047041,-3.8809092748,-0.6734004713\H,-0.
 727080086,-5.6156227907,-5.8194726242\C,-6.0845464605,-2.6777943903,-6
 .4699874815\C,-3.3819598195,-3.4217090637,-6.2604521496\C,-2.297692777
 9,-2.2455456114,-1.9794572744\H,-1.4054929164,-3.0174529953,1.19002942
 37\C,6.325532846,-0.1600557011,5.1709559272\H,-0.0632674903,-3.5875629
 2,-7.2649565245\H,-1.221555516,-2.252357472,-7.4935547814\C,3.38473418
 16,3.4527444132,6.2318831063\C,-5.3241706165,-2.1650415289,-5.41441372
 74\H,1.5018371904,3.399766503,5.2277050027\C,-2.509768444,-0.830913305
 6,-4.4700140533\H,-2.1678744862,-5.9018510832,-6.823113343\H,-7.906346
 783,-2.2108070804,-4.2932183851\\Version=ES64L-G16RevA.03\State=1-A\HF
 =-2262.692147\RMSD=7.066e-09\RMSF=2.803e-06\Dipole=0.0000701,-0.000127
 3,-0.0001214\Quadrupole=5.2946432,6.650491,-11.9451342,-13.9372749,-19
 .5408018,-7.0804762\PG=C01 [X(C48H42N2O4)]\\@


 REFRAIN FROM ILLUSIONS, INSIST ON WORK AND NOT WORDS,
 PATIENTLY SEEK DIVINE AND SCIENTIFIC TRUTH.
 LAST WORDS OF MARIA MENDELEEVA TO HER SON DMITRI, C. 1850
 Job cpu time:       0 days 22 hours 44 minutes  8.7 seconds.
 Elapsed time:       0 days  0 hours 36 minutes 32.6 seconds.
 File lengths (MBytes):  RWF=   1334 Int=      0 D2E=      0 Chk=     80 Scr=      1
 Normal termination of Gaussian 16 at Fri Feb  7 02:45:19 2020.
