 Entering Gaussian System, Link 0=g16
 Initial command:
 /opt/apps/chemistry/Gaussian/g16/l1.exe "/tmp/Gau-185314.inp" -scrdir="/tmp/"
 Entering Link 1 = /opt/apps/chemistry/Gaussian/g16/l1.exe PID=    185315.
  
 Copyright (c) 1988,1990,1992,1993,1995,1998,2003,2009,2016,
            Gaussian, Inc.  All Rights Reserved.
  
 This is part of the Gaussian(R) 16 program.  It is based on
 the Gaussian(R) 09 system (copyright 2009, Gaussian, Inc.),
 the Gaussian(R) 03 system (copyright 2003, Gaussian, Inc.),
 the Gaussian(R) 98 system (copyright 1998, Gaussian, Inc.),
 the Gaussian(R) 94 system (copyright 1995, Gaussian, Inc.),
 the Gaussian 92(TM) system (copyright 1992, Gaussian, Inc.),
 the Gaussian 90(TM) system (copyright 1990, Gaussian, Inc.),
 the Gaussian 88(TM) system (copyright 1988, Gaussian, Inc.),
 the Gaussian 86(TM) system (copyright 1986, Carnegie Mellon
 University), and the Gaussian 82(TM) system (copyright 1983,
 Carnegie Mellon University). Gaussian is a federally registered
 trademark of Gaussian, Inc.
  
 This software contains proprietary and confidential information,
 including trade secrets, belonging to Gaussian, Inc.
  
 This software is provided under written license and may be
 used, copied, transmitted, or stored only in accord with that
 written license.
  
 The following legend is applicable only to US Government
 contracts under FAR:
  
                    RESTRICTED RIGHTS LEGEND
  
 Use, reproduction and disclosure by the US Government is
 subject to restrictions as set forth in subparagraphs (a)
 and (c) of the Commercial Computer Software - Restricted
 Rights clause in FAR 52.227-19.
  
 Gaussian, Inc.
 340 Quinnipiac St., Bldg. 40, Wallingford CT 06492
  
  
 ---------------------------------------------------------------
 Warning -- This program may not be used in any manner that
 competes with the business of Gaussian, Inc. or will provide
 assistance to any competitor of Gaussian, Inc.  The licensee
 of this program is prohibited from giving any competitor of
 Gaussian, Inc. access to this program.  By using this program,
 the user acknowledges that Gaussian, Inc. is engaged in the
 business of creating and licensing software in the field of
 computational chemistry and represents and warrants to the
 licensee that it is not a competitor of Gaussian, Inc. and that
 it will not use this program in any manner prohibited above.
 ---------------------------------------------------------------
  

 Cite this work as:
 Gaussian 16, Revision A.03,
 M. J. Frisch, G. W. Trucks, H. B. Schlegel, G. E. Scuseria, 
 M. A. Robb, J. R. Cheeseman, G. Scalmani, V. Barone, 
 G. A. Petersson, H. Nakatsuji, X. Li, M. Caricato, A. V. Marenich, 
 J. Bloino, B. G. Janesko, R. Gomperts, B. Mennucci, H. P. Hratchian, 
 J. V. Ortiz, A. F. Izmaylov, J. L. Sonnenberg, D. Williams-Young, 
 F. Ding, F. Lipparini, F. Egidi, J. Goings, B. Peng, A. Petrone, 
 T. Henderson, D. Ranasinghe, V. G. Zakrzewski, J. Gao, N. Rega, 
 G. Zheng, W. Liang, M. Hada, M. Ehara, K. Toyota, R. Fukuda, 
 J. Hasegawa, M. Ishida, T. Nakajima, Y. Honda, O. Kitao, H. Nakai, 
 T. Vreven, K. Throssell, J. A. Montgomery, Jr., J. E. Peralta, 
 F. Ogliaro, M. J. Bearpark, J. J. Heyd, E. N. Brothers, K. N. Kudin, 
 V. N. Staroverov, T. A. Keith, R. Kobayashi, J. Normand, 
 K. Raghavachari, A. P. Rendell, J. C. Burant, S. S. Iyengar, 
 J. Tomasi, M. Cossi, J. M. Millam, M. Klene, C. Adamo, R. Cammi, 
 J. W. Ochterski, R. L. Martin, K. Morokuma, O. Farkas, 
 J. B. Foresman, and D. J. Fox, Gaussian, Inc., Wallingford CT, 2016.
 
 ******************************************
 Gaussian 16:  ES64L-G16RevA.03 25-Dec-2016
                 7-Feb-2020 
 ******************************************
 %mem=360GB
 %nprocshared=40
 Will use up to   40 processors via shared memory.
 %Chk=/users/psyche/volatile/gaussian/nanohybrid/chk/A8.chk
 ----------------------------------------------------------------------
 # wB97XD/Def2SVP Opt # SCRF=(SMD,Solvent=Water) # Integral=(Grid=Ultra
 FineGrid)
 ----------------------------------------------------------------------
 1/18=20,19=15,26=6,38=1/1,3;
 2/9=110,12=2,17=6,18=5,40=1/2;
 3/5=43,7=101,11=2,25=1,30=1,70=32201,71=1,72=1,74=-58,75=-5/1,2,3;
 4//1;
 5/5=2,38=5,53=1/2;
 6/7=2,8=2,9=2,10=2,28=1/1;
 7//1,2,3,16;
 1/18=20,19=15,26=6/3(2);
 2/9=110/2;
 99//99;
 2/9=110/2;
 3/5=43,7=101,11=2,25=1,30=1,70=32205,71=1,72=1,74=-58,75=-5/1,2,3;
 4/5=5,16=3,69=1/1;
 5/5=2,38=5,53=1/2;
 7//1,2,3,16;
 1/18=20,19=15,26=6/3(-5);
 2/9=110/2;
 6/7=2,8=2,9=2,10=2,19=2,28=1/1;
 99/9=1/99;
 ------------------------------
 Geometry optimisation, Mol: A8
 ------------------------------
 Symbolic Z-matrix:
 Charge =  0 Multiplicity = 1
 C                     3.52914   6.34067  -6.1494 
 H                    -3.06386  -5.82245   7.49703 
 C                    -2.633     0.49911   1.00062 
 O                    -1.91743   3.29756   0.868 
 C                     2.931     5.35541  -5.3423 
 C                     1.42096   0.01996  -0.4588 
 H                    -0.00257   4.20155  -6.88712 
 C                    -2.48129  -1.59667   2.23267 
 H                     2.05745   2.58463  -7.31277 
 H                     0.21099   5.58603  -5.81911 
 H                     0.93452   5.58789  -7.42575 
 C                    -4.26241  -5.78971   2.16605 
 C                    -4.17226  -6.74253   5.90257 
 C                    -0.55289  -0.7891    0.87571 
 C                     2.66542   2.08981  -2.01984 
 N                    -2.41217  -3.82017   3.34244 
 C                     0.7164   -1.07065   0.24522 
 C                    -3.02384  -4.83408   4.22818 
 C                    -0.37893   3.88466  -0.87632 
 C                    -1.18383  -1.80843   1.67393 
 O                    -3.44131   1.42671   0.39827 
 C                     0.55027  -3.40427   1.08021 
 O                    -4.20661  -2.42849   3.67317 
 C                     3.30666   3.12288  -2.88919 
 O                     4.40763   2.94381  -3.42757 
 C                    -0.42413  -4.44369   6.71972 
 H                    -4.6211   -7.48892   6.55677 
 H                     3.05201   3.9295   -7.85463 
 H                    -5.17331  -7.48602   4.15318 
 C                     3.23011   5.36009  -3.95768 
 C                    -5.76536  -5.48797   1.92399 
 C                    -3.21509  -0.4827    1.83596 
 N                     2.61233   4.33309  -3.09115 
 C                     1.36511   2.29623  -1.46563 
 C                     0.72818   1.26824  -0.68291 
 C                    -0.98773   2.90415  -0.05971 
 C                     2.8003   -0.03167  -0.82947 
 C                     2.71369   3.38653  -6.97096 
 C                    -1.72482  -3.77699   6.19845 
 H                     4.42931   0.88638  -1.95858 
 H                     0.04163  -5.04049   5.93572 
 H                    -0.60753  -5.09845   7.57282 
 C                     1.97808   4.30407  -5.95886 
 O                     3.6074   -0.98003  -0.25606 
 H                     3.32368   6.36877  -7.2193 
 H                     4.84293   8.04709  -6.23849 
 C                     4.42037   6.31486  -1.86653 
 C                    -3.79638  -7.09632   1.47074 
 C                    -4.48204  -6.73805   4.54121 
 C                     0.75005   3.57531  -1.62825 
 H                    -4.25478  -0.40898   2.15033 
 C                    -1.1791   -4.12355   2.72977 
 C                     1.37138   4.62629  -2.48969 
 H                    -1.41997  -3.09841   5.38204 
 H                    -3.31161  -2.42638   6.86597 
 C                    -1.25079   0.45353   0.64026 
 C                     3.38951   0.9626   -1.64472 
 H                    -6.05339  -4.55678   2.41138 
 H                    -1.74079  -2.08235   7.58433 
 C                     5.92323   6.03607  -1.59843 
 H                     1.62715   3.64591  -5.14419 
 H                     5.34701   8.03555  -3.82445 
 C                     1.14981  -2.4329    0.24494 
 C                    -0.54636   1.54528  -0.06109 
 H                     0.29734  -3.68896   7.03676 
 H                     6.11085   5.92575  -0.52926 
 H                     6.23611   5.11374  -2.08728 
 H                     6.56617   6.8398   -1.96015 
 H                     2.8597    7.76501  -1.36655 
 H                     4.45592   8.49688  -1.51003 
 H                    -0.75441   4.90655  -0.90159 
 O                     0.83229   5.72381  -2.68722 
 C                     3.92041   7.6089   -1.17117 
 H                     4.05283   7.54227  -0.09025 
 C                     4.38939   7.2919   -5.59774 
 C                     4.67246   7.28211  -4.23065 
 H                    -4.34003  -7.97327   1.82509 
 C                    -2.40854  -2.88522   7.26821 
 H                     3.58664   2.92693  -6.50782 
 O                    -0.63845  -5.21873   2.9363 
 H                    -3.7013   -4.96846   1.68579 
 H                     0.92312  -4.42687   1.10941 
 H                    -5.97158  -5.38276   0.85768 
 C                    -3.29148  -5.79716   6.43151 
 C                    -3.91445  -5.7863    3.67408 
 C                    -0.56718  -3.08518   1.84607 
 C                     0.70867   4.96203  -6.56129 
 H                    -3.94709  -7.03439   0.39184 
 H                    -2.73492  -7.26844   1.64813 
 C                     4.10019   6.31768  -3.38073 
 C                    -2.7007   -4.82168   5.60729 
 H                     3.86399   5.48083  -1.40305 
 C                    -3.11083  -2.61478   3.12643 
 H                    -6.41433  -6.27813   2.30445 
 H                    -2.68854  -3.44509   8.16167 
 O                     2.05939  -2.83696  -0.69676 
 C                     4.79986  -1.42631  -0.8178 
 C                     5.87673  -1.64557   0.05853 
 C                     7.06051  -2.20214  -0.43683 
 C                     4.89447  -1.785    -2.17798 
 C                     6.0872   -2.33768  -2.65304 
 H                     4.04678  -1.65389  -2.84873 
 H                     6.16576  -2.61863  -3.70231 
 H                     8.09251  -2.98183  -2.16905 
 C                     7.17008  -2.54582  -1.78965 
 H                     7.8984   -2.3728    0.23771 
 H                     5.78018  -1.38656   1.11126 
 C                     2.85533  -3.97245  -0.57517 
 C                     3.5776   -4.25374   0.60229 
 C                     4.4497   -5.34604   0.61881 
 C                     3.02751  -4.75798  -1.72792 
 C                     3.90663  -5.84526  -1.69068 
 H                     2.48146  -4.51296  -2.63704 
 H                     4.04203  -6.45841  -2.58065 
 H                     5.30068  -6.98873  -0.49827 
 C                     4.61539  -6.14336  -0.52064 
 H                     5.01215  -5.56787   1.52466 
 H                     3.47632  -3.62071   1.48242 
 C                    -4.666     1.84524   0.91046 
 C                    -4.81763   2.23306   2.25719 
 C                    -6.04337   2.75583   2.67889 
 C                    -5.71909   2.00697  -0.00596 
 C                    -6.93698   2.53373   0.43622 
 H                    -5.5786    1.72595  -1.04802 
 H                    -7.75708   2.65887  -0.26928 
 H                    -8.05198   3.31863   2.11371 
 C                    -7.10334   2.90564   1.77569 
 H                    -6.16657   3.0593    3.71766 
 H                    -3.9886    2.14674   2.95836 
 C                    -2.73406   4.41516   0.72598 
 C                    -2.95223   5.19603   1.87418 
 C                    -3.85662   6.26153   1.81627 
 C                    -3.4341    4.68063  -0.46868 
 C                    -4.33213   5.75126  -0.50554 
 H                    -3.29644   4.05133  -1.34664 
 H                    -4.87829   5.95975  -1.4244 
 H                    -5.25059   7.37069   0.59183 
 C                    -4.54495   6.54278   0.63007 
 H                    -4.02799   6.87036   2.70279 
 H                    -2.42238   4.96355   2.79594 
 

 GradGradGradGradGradGradGradGradGradGradGradGradGradGradGradGradGradGrad
 Berny optimization.
 Initialization pass.
                           ----------------------------
                           !    Initial Parameters    !
                           ! (Angstroms and Degrees)  !
 --------------------------                            --------------------------
 ! Name  Definition              Value          Derivative Info.                !
 --------------------------------------------------------------------------------
 ! R1    R(1,5)                  1.4071         estimate D2E/DX2                !
 ! R2    R(1,45)                 1.0898         estimate D2E/DX2                !
 ! R3    R(1,75)                 1.3961         estimate D2E/DX2                !
 ! R4    R(2,84)                 1.0899         estimate D2E/DX2                !
 ! R5    R(3,21)                 1.3699         estimate D2E/DX2                !
 ! R6    R(3,32)                 1.4144         estimate D2E/DX2                !
 ! R7    R(3,56)                 1.4291         estimate D2E/DX2                !
 ! R8    R(4,36)                 1.371          estimate D2E/DX2                !
 ! R9    R(4,130)                1.3914         estimate D2E/DX2                !
 ! R10   R(5,30)                 1.4166         estimate D2E/DX2                !
 ! R11   R(5,43)                 1.5471         estimate D2E/DX2                !
 ! R12   R(6,17)                 1.477          estimate D2E/DX2                !
 ! R13   R(6,35)                 1.4451         estimate D2E/DX2                !
 ! R14   R(6,37)                 1.4292         estimate D2E/DX2                !
 ! R15   R(7,87)                 1.091          estimate D2E/DX2                !
 ! R16   R(8,20)                 1.4284         estimate D2E/DX2                !
 ! R17   R(8,32)                 1.3917         estimate D2E/DX2                !
 ! R18   R(8,93)                 1.4939         estimate D2E/DX2                !
 ! R19   R(9,38)                 1.0911         estimate D2E/DX2                !
 ! R20   R(10,87)                1.0899         estimate D2E/DX2                !
 ! R21   R(11,87)                1.0909         estimate D2E/DX2                !
 ! R22   R(12,31)                1.5519         estimate D2E/DX2                !
 ! R23   R(12,48)                1.5517         estimate D2E/DX2                !
 ! R24   R(12,81)                1.1045         estimate D2E/DX2                !
 ! R25   R(12,85)                1.5477         estimate D2E/DX2                !
 ! R26   R(13,27)                1.0893         estimate D2E/DX2                !
 ! R27   R(13,49)                1.3962         estimate D2E/DX2                !
 ! R28   R(13,84)                1.3962         estimate D2E/DX2                !
 ! R29   R(14,17)                1.4449         estimate D2E/DX2                !
 ! R30   R(14,20)                1.4402         estimate D2E/DX2                !
 ! R31   R(14,56)                1.4445         estimate D2E/DX2                !
 ! R32   R(15,24)                1.4947         estimate D2E/DX2                !
 ! R33   R(15,34)                1.4285         estimate D2E/DX2                !
 ! R34   R(15,57)                1.3913         estimate D2E/DX2                !
 ! R35   R(16,18)                1.4787         estimate D2E/DX2                !
 ! R36   R(16,52)                1.4099         estimate D2E/DX2                !
 ! R37   R(16,93)                1.4099         estimate D2E/DX2                !
 ! R38   R(17,63)                1.4295         estimate D2E/DX2                !
 ! R39   R(18,85)                1.4167         estimate D2E/DX2                !
 ! R40   R(18,91)                1.4165         estimate D2E/DX2                !
 ! R41   R(19,36)                1.4138         estimate D2E/DX2                !
 ! R42   R(19,50)                1.3913         estimate D2E/DX2                !
 ! R43   R(19,71)                1.089          estimate D2E/DX2                !
 ! R44   R(20,86)                1.4283         estimate D2E/DX2                !
 ! R45   R(21,119)               1.3919         estimate D2E/DX2                !
 ! R46   R(22,63)                1.4145         estimate D2E/DX2                !
 ! R47   R(22,82)                1.0888         estimate D2E/DX2                !
 ! R48   R(22,86)                1.3918         estimate D2E/DX2                !
 ! R49   R(23,93)                1.2387         estimate D2E/DX2                !
 ! R50   R(24,25)                1.2386         estimate D2E/DX2                !
 ! R51   R(24,33)                1.4098         estimate D2E/DX2                !
 ! R52   R(26,39)                1.5518         estimate D2E/DX2                !
 ! R53   R(26,41)                1.0898         estimate D2E/DX2                !
 ! R54   R(26,42)                1.0909         estimate D2E/DX2                !
 ! R55   R(26,65)                1.0912         estimate D2E/DX2                !
 ! R56   R(28,38)                1.0909         estimate D2E/DX2                !
 ! R57   R(29,49)                1.0899         estimate D2E/DX2                !
 ! R58   R(30,33)                1.4789         estimate D2E/DX2                !
 ! R59   R(30,90)                1.4166         estimate D2E/DX2                !
 ! R60   R(31,58)                1.0898         estimate D2E/DX2                !
 ! R61   R(31,83)                1.0912         estimate D2E/DX2                !
 ! R62   R(31,94)                1.091          estimate D2E/DX2                !
 ! R63   R(32,51)                1.0887         estimate D2E/DX2                !
 ! R64   R(33,53)                1.4099         estimate D2E/DX2                !
 ! R65   R(34,35)                1.4405         estimate D2E/DX2                !
 ! R66   R(34,50)                1.4286         estimate D2E/DX2                !
 ! R67   R(35,64)                1.4449         estimate D2E/DX2                !
 ! R68   R(36,64)                1.4288         estimate D2E/DX2                !
 ! R69   R(37,44)                1.371          estimate D2E/DX2                !
 ! R70   R(37,57)                1.4143         estimate D2E/DX2                !
 ! R71   R(38,43)                1.5516         estimate D2E/DX2                !
 ! R72   R(38,79)                1.0898         estimate D2E/DX2                !
 ! R73   R(39,54)                1.1045         estimate D2E/DX2                !
 ! R74   R(39,78)                1.5515         estimate D2E/DX2                !
 ! R75   R(39,91)                1.547          estimate D2E/DX2                !
 ! R76   R(40,57)                1.0888         estimate D2E/DX2                !
 ! R77   R(43,61)                1.1045         estimate D2E/DX2                !
 ! R78   R(43,87)                1.5515         estimate D2E/DX2                !
 ! R79   R(44,97)                1.3916         estimate D2E/DX2                !
 ! R80   R(46,75)                1.0893         estimate D2E/DX2                !
 ! R81   R(47,60)                1.5518         estimate D2E/DX2                !
 ! R82   R(47,73)                1.5518         estimate D2E/DX2                !
 ! R83   R(47,90)                1.5477         estimate D2E/DX2                !
 ! R84   R(47,92)                1.1045         estimate D2E/DX2                !
 ! R85   R(48,77)                1.0909         estimate D2E/DX2                !
 ! R86   R(48,88)                1.0911         estimate D2E/DX2                !
 ! R87   R(48,89)                1.0899         estimate D2E/DX2                !
 ! R88   R(49,85)                1.4071         estimate D2E/DX2                !
 ! R89   R(50,53)                1.4942         estimate D2E/DX2                !
 ! R90   R(52,80)                1.2387         estimate D2E/DX2                !
 ! R91   R(52,86)                1.4945         estimate D2E/DX2                !
 ! R92   R(53,72)                1.2386         estimate D2E/DX2                !
 ! R93   R(55,78)                1.0899         estimate D2E/DX2                !
 ! R94   R(56,64)                1.4765         estimate D2E/DX2                !
 ! R95   R(59,78)                1.0911         estimate D2E/DX2                !
 ! R96   R(60,66)                1.0911         estimate D2E/DX2                !
 ! R97   R(60,67)                1.0898         estimate D2E/DX2                !
 ! R98   R(60,68)                1.091          estimate D2E/DX2                !
 ! R99   R(62,76)                1.0898         estimate D2E/DX2                !
 ! R100  R(63,96)                1.3702         estimate D2E/DX2                !
 ! R101  R(69,73)                1.0898         estimate D2E/DX2                !
 ! R102  R(70,73)                1.0909         estimate D2E/DX2                !
 ! R103  R(73,74)                1.091          estimate D2E/DX2                !
 ! R104  R(75,76)                1.3961         estimate D2E/DX2                !
 ! R105  R(76,90)                1.4071         estimate D2E/DX2                !
 ! R106  R(78,95)                1.0909         estimate D2E/DX2                !
 ! R107  R(84,91)                1.4071         estimate D2E/DX2                !
 ! R108  R(96,108)               1.392          estimate D2E/DX2                !
 ! R109  R(97,98)                1.4056         estimate D2E/DX2                !
 ! R110  R(97,100)               1.4099         estimate D2E/DX2                !
 ! R111  R(98,99)                1.3987         estimate D2E/DX2                !
 ! R112  R(98,107)               1.0884         estimate D2E/DX2                !
 ! R113  R(99,105)               1.4001         estimate D2E/DX2                !
 ! R114  R(99,106)               1.0891         estimate D2E/DX2                !
 ! R115  R(100,101)              1.3978         estimate D2E/DX2                !
 ! R116  R(100,102)              1.0889         estimate D2E/DX2                !
 ! R117  R(101,103)              1.0891         estimate D2E/DX2                !
 ! R118  R(101,105)              1.4005         estimate D2E/DX2                !
 ! R119  R(104,105)              1.0885         estimate D2E/DX2                !
 ! R120  R(108,109)              1.4097         estimate D2E/DX2                !
 ! R121  R(108,111)              1.4055         estimate D2E/DX2                !
 ! R122  R(109,110)              1.3978         estimate D2E/DX2                !
 ! R123  R(109,118)              1.0889         estimate D2E/DX2                !
 ! R124  R(110,116)              1.4005         estimate D2E/DX2                !
 ! R125  R(110,117)              1.0891         estimate D2E/DX2                !
 ! R126  R(111,112)              1.3987         estimate D2E/DX2                !
 ! R127  R(111,113)              1.0884         estimate D2E/DX2                !
 ! R128  R(112,114)              1.0892         estimate D2E/DX2                !
 ! R129  R(112,116)              1.4001         estimate D2E/DX2                !
 ! R130  R(115,116)              1.0885         estimate D2E/DX2                !
 ! R131  R(119,120)              1.4096         estimate D2E/DX2                !
 ! R132  R(119,122)              1.4053         estimate D2E/DX2                !
 ! R133  R(120,121)              1.3977         estimate D2E/DX2                !
 ! R134  R(120,129)              1.0892         estimate D2E/DX2                !
 ! R135  R(121,127)              1.4006         estimate D2E/DX2                !
 ! R136  R(121,128)              1.0892         estimate D2E/DX2                !
 ! R137  R(122,123)              1.3987         estimate D2E/DX2                !
 ! R138  R(122,124)              1.0884         estimate D2E/DX2                !
 ! R139  R(123,125)              1.089          estimate D2E/DX2                !
 ! R140  R(123,127)              1.4001         estimate D2E/DX2                !
 ! R141  R(126,127)              1.0885         estimate D2E/DX2                !
 ! R142  R(130,131)              1.4056         estimate D2E/DX2                !
 ! R143  R(130,133)              1.4099         estimate D2E/DX2                !
 ! R144  R(131,132)              1.3988         estimate D2E/DX2                !
 ! R145  R(131,140)              1.0883         estimate D2E/DX2                !
 ! R146  R(132,138)              1.4            estimate D2E/DX2                !
 ! R147  R(132,139)              1.089          estimate D2E/DX2                !
 ! R148  R(133,134)              1.3979         estimate D2E/DX2                !
 ! R149  R(133,135)              1.0889         estimate D2E/DX2                !
 ! R150  R(134,136)              1.0891         estimate D2E/DX2                !
 ! R151  R(134,138)              1.4005         estimate D2E/DX2                !
 ! R152  R(137,138)              1.0885         estimate D2E/DX2                !
 ! A1    A(5,1,45)             120.0679         estimate D2E/DX2                !
 ! A2    A(5,1,75)             120.8206         estimate D2E/DX2                !
 ! A3    A(45,1,75)            119.1115         estimate D2E/DX2                !
 ! A4    A(21,3,32)            119.1357         estimate D2E/DX2                !
 ! A5    A(21,3,56)            118.7764         estimate D2E/DX2                !
 ! A6    A(32,3,56)            121.6556         estimate D2E/DX2                !
 ! A7    A(36,4,130)           124.0132         estimate D2E/DX2                !
 ! A8    A(1,5,30)             117.9425         estimate D2E/DX2                !
 ! A9    A(1,5,43)             120.6017         estimate D2E/DX2                !
 ! A10   A(30,5,43)            121.4558         estimate D2E/DX2                !
 ! A11   A(17,6,35)            118.8856         estimate D2E/DX2                !
 ! A12   A(17,6,37)            123.8712         estimate D2E/DX2                !
 ! A13   A(35,6,37)            116.9783         estimate D2E/DX2                !
 ! A14   A(20,8,32)            119.0839         estimate D2E/DX2                !
 ! A15   A(20,8,93)            121.0483         estimate D2E/DX2                !
 ! A16   A(32,8,93)            119.5951         estimate D2E/DX2                !
 ! A17   A(31,12,48)           112.6236         estimate D2E/DX2                !
 ! A18   A(31,12,81)           106.2361         estimate D2E/DX2                !
 ! A19   A(31,12,85)           111.6715         estimate D2E/DX2                !
 ! A20   A(48,12,81)           106.1814         estimate D2E/DX2                !
 ! A21   A(48,12,85)           111.774          estimate D2E/DX2                !
 ! A22   A(81,12,85)           107.9284         estimate D2E/DX2                !
 ! A23   A(27,13,49)           119.7608         estimate D2E/DX2                !
 ! A24   A(27,13,84)           119.7612         estimate D2E/DX2                !
 ! A25   A(49,13,84)           120.478          estimate D2E/DX2                !
 ! A26   A(17,14,20)           119.2583         estimate D2E/DX2                !
 ! A27   A(17,14,56)           121.3929         estimate D2E/DX2                !
 ! A28   A(20,14,56)           119.1776         estimate D2E/DX2                !
 ! A29   A(24,15,34)           121.0835         estimate D2E/DX2                !
 ! A30   A(24,15,57)           119.5715         estimate D2E/DX2                !
 ! A31   A(34,15,57)           119.0928         estimate D2E/DX2                !
 ! A32   A(18,16,52)           118.3271         estimate D2E/DX2                !
 ! A33   A(18,16,93)           118.2293         estimate D2E/DX2                !
 ! A34   A(52,16,93)           123.4205         estimate D2E/DX2                !
 ! A35   A(6,17,14)            118.8906         estimate D2E/DX2                !
 ! A36   A(6,17,63)            123.9819         estimate D2E/DX2                !
 ! A37   A(14,17,63)           116.878          estimate D2E/DX2                !
 ! A38   A(16,18,85)           119.1194         estimate D2E/DX2                !
 ! A39   A(16,18,91)           118.8684         estimate D2E/DX2                !
 ! A40   A(85,18,91)           122.0122         estimate D2E/DX2                !
 ! A41   A(36,19,50)           120.4896         estimate D2E/DX2                !
 ! A42   A(36,19,71)           121.0458         estimate D2E/DX2                !
 ! A43   A(50,19,71)           118.4177         estimate D2E/DX2                !
 ! A44   A(8,20,14)            120.6492         estimate D2E/DX2                !
 ! A45   A(8,20,86)            118.5242         estimate D2E/DX2                !
 ! A46   A(14,20,86)           120.6855         estimate D2E/DX2                !
 ! A47   A(3,21,119)           124.1233         estimate D2E/DX2                !
 ! A48   A(63,22,82)           121.0411         estimate D2E/DX2                !
 ! A49   A(63,22,86)           120.5188         estimate D2E/DX2                !
 ! A50   A(82,22,86)           118.3918         estimate D2E/DX2                !
 ! A51   A(15,24,25)           122.2919         estimate D2E/DX2                !
 ! A52   A(15,24,33)           117.732          estimate D2E/DX2                !
 ! A53   A(25,24,33)           119.9758         estimate D2E/DX2                !
 ! A54   A(39,26,41)           110.5995         estimate D2E/DX2                !
 ! A55   A(39,26,42)           112.3116         estimate D2E/DX2                !
 ! A56   A(39,26,65)           110.7715         estimate D2E/DX2                !
 ! A57   A(41,26,42)           107.8017         estimate D2E/DX2                !
 ! A58   A(41,26,65)           107.7703         estimate D2E/DX2                !
 ! A59   A(42,26,65)           107.4019         estimate D2E/DX2                !
 ! A60   A(5,30,33)            118.8295         estimate D2E/DX2                !
 ! A61   A(5,30,90)            122.0053         estimate D2E/DX2                !
 ! A62   A(33,30,90)           119.1652         estimate D2E/DX2                !
 ! A63   A(12,31,58)           110.6302         estimate D2E/DX2                !
 ! A64   A(12,31,83)           110.7442         estimate D2E/DX2                !
 ! A65   A(12,31,94)           112.387          estimate D2E/DX2                !
 ! A66   A(58,31,83)           107.7409         estimate D2E/DX2                !
 ! A67   A(58,31,94)           107.7989         estimate D2E/DX2                !
 ! A68   A(83,31,94)           107.3496         estimate D2E/DX2                !
 ! A69   A(3,32,8)             120.4631         estimate D2E/DX2                !
 ! A70   A(3,32,51)            121.1017         estimate D2E/DX2                !
 ! A71   A(8,32,51)            118.388          estimate D2E/DX2                !
 ! A72   A(24,33,30)           118.315          estimate D2E/DX2                !
 ! A73   A(24,33,53)           123.4299         estimate D2E/DX2                !
 ! A74   A(30,33,53)           118.2435         estimate D2E/DX2                !
 ! A75   A(15,34,35)           120.6751         estimate D2E/DX2                !
 ! A76   A(15,34,50)           118.4984         estimate D2E/DX2                !
 ! A77   A(35,34,50)           120.6928         estimate D2E/DX2                !
 ! A78   A(6,35,34)            119.2563         estimate D2E/DX2                !
 ! A79   A(6,35,64)            121.4488         estimate D2E/DX2                !
 ! A80   A(34,35,64)           119.1448         estimate D2E/DX2                !
 ! A81   A(4,36,19)            118.935          estimate D2E/DX2                !
 ! A82   A(4,36,64)            118.8839         estimate D2E/DX2                !
 ! A83   A(19,36,64)           121.7368         estimate D2E/DX2                !
 ! A84   A(6,37,44)            118.9913         estimate D2E/DX2                !
 ! A85   A(6,37,57)            121.7461         estimate D2E/DX2                !
 ! A86   A(44,37,57)           118.8238         estimate D2E/DX2                !
 ! A87   A(9,38,28)            107.3707         estimate D2E/DX2                !
 ! A88   A(9,38,43)            110.7208         estimate D2E/DX2                !
 ! A89   A(9,38,79)            107.7545         estimate D2E/DX2                !
 ! A90   A(28,38,43)           112.4005         estimate D2E/DX2                !
 ! A91   A(28,38,79)           107.8008         estimate D2E/DX2                !
 ! A92   A(43,38,79)           110.6056         estimate D2E/DX2                !
 ! A93   A(26,39,54)           106.3146         estimate D2E/DX2                !
 ! A94   A(26,39,78)           112.6258         estimate D2E/DX2                !
 ! A95   A(26,39,91)           111.5297         estimate D2E/DX2                !
 ! A96   A(54,39,78)           106.1503         estimate D2E/DX2                !
 ! A97   A(54,39,91)           107.8509         estimate D2E/DX2                !
 ! A98   A(78,39,91)           111.9404         estimate D2E/DX2                !
 ! A99   A(5,43,38)            111.7036         estimate D2E/DX2                !
 ! A100  A(5,43,61)            107.8592         estimate D2E/DX2                !
 ! A101  A(5,43,87)            111.7466         estimate D2E/DX2                !
 ! A102  A(38,43,61)           106.223          estimate D2E/DX2                !
 ! A103  A(38,43,87)           112.6687         estimate D2E/DX2                !
 ! A104  A(61,43,87)           106.2082         estimate D2E/DX2                !
 ! A105  A(37,44,97)           123.8792         estimate D2E/DX2                !
 ! A106  A(60,47,73)           112.6073         estimate D2E/DX2                !
 ! A107  A(60,47,90)           111.6972         estimate D2E/DX2                !
 ! A108  A(60,47,92)           106.2411         estimate D2E/DX2                !
 ! A109  A(73,47,90)           111.7303         estimate D2E/DX2                !
 ! A110  A(73,47,92)           106.2219         estimate D2E/DX2                !
 ! A111  A(90,47,92)           107.9211         estimate D2E/DX2                !
 ! A112  A(12,48,77)           112.4364         estimate D2E/DX2                !
 ! A113  A(12,48,88)           110.7192         estimate D2E/DX2                !
 ! A114  A(12,48,89)           110.6435         estimate D2E/DX2                !
 ! A115  A(77,48,88)           107.3352         estimate D2E/DX2                !
 ! A116  A(77,48,89)           107.7899         estimate D2E/DX2                !
 ! A117  A(88,48,89)           107.7237         estimate D2E/DX2                !
 ! A118  A(13,49,29)           119.0565         estimate D2E/DX2                !
 ! A119  A(13,49,85)           120.9015         estimate D2E/DX2                !
 ! A120  A(29,49,85)           120.042          estimate D2E/DX2                !
 ! A121  A(19,50,34)           119.139          estimate D2E/DX2                !
 ! A122  A(19,50,53)           119.5127         estimate D2E/DX2                !
 ! A123  A(34,50,53)           121.0883         estimate D2E/DX2                !
 ! A124  A(16,52,80)           119.9676         estimate D2E/DX2                !
 ! A125  A(16,52,86)           117.7443         estimate D2E/DX2                !
 ! A126  A(80,52,86)           122.2875         estimate D2E/DX2                !
 ! A127  A(33,53,50)           117.7544         estimate D2E/DX2                !
 ! A128  A(33,53,72)           119.956          estimate D2E/DX2                !
 ! A129  A(50,53,72)           122.2892         estimate D2E/DX2                !
 ! A130  A(3,56,14)            116.9753         estimate D2E/DX2                !
 ! A131  A(3,56,64)            123.8918         estimate D2E/DX2                !
 ! A132  A(14,56,64)           118.8814         estimate D2E/DX2                !
 ! A133  A(15,57,37)           120.5415         estimate D2E/DX2                !
 ! A134  A(15,57,40)           118.4262         estimate D2E/DX2                !
 ! A135  A(37,57,40)           120.9832         estimate D2E/DX2                !
 ! A136  A(47,60,66)           110.7312         estimate D2E/DX2                !
 ! A137  A(47,60,67)           110.6465         estimate D2E/DX2                !
 ! A138  A(47,60,68)           112.4019         estimate D2E/DX2                !
 ! A139  A(66,60,67)           107.7357         estimate D2E/DX2                !
 ! A140  A(66,60,68)           107.3404         estimate D2E/DX2                !
 ! A141  A(67,60,68)           107.7939         estimate D2E/DX2                !
 ! A142  A(17,63,22)           121.7219         estimate D2E/DX2                !
 ! A143  A(17,63,96)           118.8431         estimate D2E/DX2                !
 ! A144  A(22,63,96)           118.994          estimate D2E/DX2                !
 ! A145  A(35,64,36)           117.0813         estimate D2E/DX2                !
 ! A146  A(35,64,56)           118.9129         estimate D2E/DX2                !
 ! A147  A(36,64,56)           123.7392         estimate D2E/DX2                !
 ! A148  A(47,73,69)           110.6528         estimate D2E/DX2                !
 ! A149  A(47,73,70)           112.4226         estimate D2E/DX2                !
 ! A150  A(47,73,74)           110.7271         estimate D2E/DX2                !
 ! A151  A(69,73,70)           107.7877         estimate D2E/DX2                !
 ! A152  A(69,73,74)           107.728          estimate D2E/DX2                !
 ! A153  A(70,73,74)           107.3297         estimate D2E/DX2                !
 ! A154  A(1,75,46)            119.7669         estimate D2E/DX2                !
 ! A155  A(1,75,76)            120.4688         estimate D2E/DX2                !
 ! A156  A(46,75,76)           119.7643         estimate D2E/DX2                !
 ! A157  A(62,76,75)           119.0533         estimate D2E/DX2                !
 ! A158  A(62,76,90)           120.0294         estimate D2E/DX2                !
 ! A159  A(75,76,90)           120.9173         estimate D2E/DX2                !
 ! A160  A(39,78,55)           110.6499         estimate D2E/DX2                !
 ! A161  A(39,78,59)           110.6725         estimate D2E/DX2                !
 ! A162  A(39,78,95)           112.5087         estimate D2E/DX2                !
 ! A163  A(55,78,59)           107.7128         estimate D2E/DX2                !
 ! A164  A(55,78,95)           107.7973         estimate D2E/DX2                !
 ! A165  A(59,78,95)           107.3038         estimate D2E/DX2                !
 ! A166  A(2,84,13)            119.1067         estimate D2E/DX2                !
 ! A167  A(2,84,91)            120.0714         estimate D2E/DX2                !
 ! A168  A(13,84,91)           120.8219         estimate D2E/DX2                !
 ! A169  A(12,85,18)           121.5969         estimate D2E/DX2                !
 ! A170  A(12,85,49)           120.5505         estimate D2E/DX2                !
 ! A171  A(18,85,49)           117.8526         estimate D2E/DX2                !
 ! A172  A(20,86,22)           119.0299         estimate D2E/DX2                !
 ! A173  A(20,86,52)           121.0354         estimate D2E/DX2                !
 ! A174  A(22,86,52)           119.6578         estimate D2E/DX2                !
 ! A175  A(7,87,10)            107.7438         estimate D2E/DX2                !
 ! A176  A(7,87,11)            107.3499         estimate D2E/DX2                !
 ! A177  A(7,87,43)            110.7154         estimate D2E/DX2                !
 ! A178  A(10,87,11)           107.7996         estimate D2E/DX2                !
 ! A179  A(10,87,43)           110.6088         estimate D2E/DX2                !
 ! A180  A(11,87,43)           112.4332         estimate D2E/DX2                !
 ! A181  A(30,90,47)           121.6199         estimate D2E/DX2                !
 ! A182  A(30,90,76)           117.8454         estimate D2E/DX2                !
 ! A183  A(47,90,76)           120.5347         estimate D2E/DX2                !
 ! A184  A(18,91,39)           121.4571         estimate D2E/DX2                !
 ! A185  A(18,91,84)           117.9333         estimate D2E/DX2                !
 ! A186  A(39,91,84)           120.609          estimate D2E/DX2                !
 ! A187  A(8,93,16)            117.7431         estimate D2E/DX2                !
 ! A188  A(8,93,23)            122.3011         estimate D2E/DX2                !
 ! A189  A(16,93,23)           119.9555         estimate D2E/DX2                !
 ! A190  A(63,96,108)          124.0629         estimate D2E/DX2                !
 ! A191  A(44,97,98)           117.0546         estimate D2E/DX2                !
 ! A192  A(44,97,100)          121.9054         estimate D2E/DX2                !
 ! A193  A(98,97,100)          120.6901         estimate D2E/DX2                !
 ! A194  A(97,98,99)           119.3188         estimate D2E/DX2                !
 ! A195  A(97,98,107)          119.8637         estimate D2E/DX2                !
 ! A196  A(99,98,107)          120.8168         estimate D2E/DX2                !
 ! A197  A(98,99,105)          120.4039         estimate D2E/DX2                !
 ! A198  A(98,99,106)          119.6112         estimate D2E/DX2                !
 ! A199  A(105,99,106)         119.984          estimate D2E/DX2                !
 ! A200  A(97,100,101)         119.062          estimate D2E/DX2                !
 ! A201  A(97,100,102)         120.7582         estimate D2E/DX2                !
 ! A202  A(101,100,102)        120.1687         estimate D2E/DX2                !
 ! A203  A(100,101,103)        119.4069         estimate D2E/DX2                !
 ! A204  A(100,101,105)        120.5992         estimate D2E/DX2                !
 ! A205  A(103,101,105)        119.9897         estimate D2E/DX2                !
 ! A206  A(99,105,101)         119.9129         estimate D2E/DX2                !
 ! A207  A(99,105,104)         120.0934         estimate D2E/DX2                !
 ! A208  A(101,105,104)        119.9918         estimate D2E/DX2                !
 ! A209  A(96,108,109)         121.9178         estimate D2E/DX2                !
 ! A210  A(96,108,111)         117.0201         estimate D2E/DX2                !
 ! A211  A(109,108,111)        120.7142         estimate D2E/DX2                !
 ! A212  A(108,109,110)        119.0427         estimate D2E/DX2                !
 ! A213  A(108,109,118)        120.7628         estimate D2E/DX2                !
 ! A214  A(110,109,118)        120.1833         estimate D2E/DX2                !
 ! A215  A(109,110,116)        120.6005         estimate D2E/DX2                !
 ! A216  A(109,110,117)        119.4194         estimate D2E/DX2                !
 ! A217  A(116,110,117)        119.976          estimate D2E/DX2                !
 ! A218  A(108,111,112)        119.3143         estimate D2E/DX2                !
 ! A219  A(108,111,113)        119.852          estimate D2E/DX2                !
 ! A220  A(112,111,113)        120.8332         estimate D2E/DX2                !
 ! A221  A(111,112,114)        119.6022         estimate D2E/DX2                !
 ! A222  A(111,112,116)        120.3934         estimate D2E/DX2                !
 ! A223  A(114,112,116)        120.0037         estimate D2E/DX2                !
 ! A224  A(110,116,112)        119.921          estimate D2E/DX2                !
 ! A225  A(110,116,115)        119.994          estimate D2E/DX2                !
 ! A226  A(112,116,115)        120.0831         estimate D2E/DX2                !
 ! A227  A(21,119,120)         121.933          estimate D2E/DX2                !
 ! A228  A(21,119,122)         116.9993         estimate D2E/DX2                !
 ! A229  A(120,119,122)        120.7125         estimate D2E/DX2                !
 ! A230  A(119,120,121)        119.0439         estimate D2E/DX2                !
 ! A231  A(119,120,129)        120.753          estimate D2E/DX2                !
 ! A232  A(121,120,129)        120.1924         estimate D2E/DX2                !
 ! A233  A(120,121,127)        120.6054         estimate D2E/DX2                !
 ! A234  A(120,121,128)        119.4164         estimate D2E/DX2                !
 ! A235  A(127,121,128)        119.9739         estimate D2E/DX2                !
 ! A236  A(119,122,123)        119.3197         estimate D2E/DX2                !
 ! A237  A(119,122,124)        119.861          estimate D2E/DX2                !
 ! A238  A(123,122,124)        120.8189         estimate D2E/DX2                !
 ! A239  A(122,123,125)        119.6171         estimate D2E/DX2                !
 ! A240  A(122,123,127)        120.396          estimate D2E/DX2                !
 ! A241  A(125,123,127)        119.9861         estimate D2E/DX2                !
 ! A242  A(121,127,123)        119.9082         estimate D2E/DX2                !
 ! A243  A(121,127,126)        119.9931         estimate D2E/DX2                !
 ! A244  A(123,127,126)        120.0967         estimate D2E/DX2                !
 ! A245  A(4,130,131)          116.9961         estimate D2E/DX2                !
 ! A246  A(4,130,133)          121.9472         estimate D2E/DX2                !
 ! A247  A(131,130,133)        120.6975         estimate D2E/DX2                !
 ! A248  A(130,131,132)        119.3218         estimate D2E/DX2                !
 ! A249  A(130,131,140)        119.8428         estimate D2E/DX2                !
 ! A250  A(132,131,140)        120.8347         estimate D2E/DX2                !
 ! A251  A(131,132,138)        120.3978         estimate D2E/DX2                !
 ! A252  A(131,132,139)        119.5974         estimate D2E/DX2                !
 ! A253  A(138,132,139)        120.0039         estimate D2E/DX2                !
 ! A254  A(130,133,134)        119.0479         estimate D2E/DX2                !
 ! A255  A(130,133,135)        120.7703         estimate D2E/DX2                !
 ! A256  A(134,133,135)        120.1697         estimate D2E/DX2                !
 ! A257  A(133,134,136)        119.4093         estimate D2E/DX2                !
 ! A258  A(133,134,138)        120.6038         estimate D2E/DX2                !
 ! A259  A(136,134,138)        119.9822         estimate D2E/DX2                !
 ! A260  A(132,138,134)        119.9194         estimate D2E/DX2                !
 ! A261  A(132,138,137)        120.0859         estimate D2E/DX2                !
 ! A262  A(134,138,137)        119.993          estimate D2E/DX2                !
 ! D1    D(45,1,5,30)          179.9592         estimate D2E/DX2                !
 ! D2    D(45,1,5,43)           -0.0185         estimate D2E/DX2                !
 ! D3    D(75,1,5,30)           -0.0451         estimate D2E/DX2                !
 ! D4    D(75,1,5,43)          179.9772         estimate D2E/DX2                !
 ! D5    D(5,1,75,46)         -179.9893         estimate D2E/DX2                !
 ! D6    D(5,1,75,76)            0.0095         estimate D2E/DX2                !
 ! D7    D(45,1,75,46)           0.0065         estimate D2E/DX2                !
 ! D8    D(45,1,75,76)        -179.9948         estimate D2E/DX2                !
 ! D9    D(32,3,21,119)         27.0768         estimate D2E/DX2                !
 ! D10   D(56,3,21,119)       -160.3411         estimate D2E/DX2                !
 ! D11   D(21,3,32,8)          166.3507         estimate D2E/DX2                !
 ! D12   D(21,3,32,51)         -11.1134         estimate D2E/DX2                !
 ! D13   D(56,3,32,8)           -6.0098         estimate D2E/DX2                !
 ! D14   D(56,3,32,51)         176.5261         estimate D2E/DX2                !
 ! D15   D(21,3,56,14)        -157.3458         estimate D2E/DX2                !
 ! D16   D(21,3,56,64)          16.8143         estimate D2E/DX2                !
 ! D17   D(32,3,56,14)          15.0413         estimate D2E/DX2                !
 ! D18   D(32,3,56,64)        -170.7987         estimate D2E/DX2                !
 ! D19   D(130,4,36,19)         29.0937         estimate D2E/DX2                !
 ! D20   D(130,4,36,64)       -158.4198         estimate D2E/DX2                !
 ! D21   D(36,4,130,131)      -139.7207         estimate D2E/DX2                !
 ! D22   D(36,4,130,133)        47.1189         estimate D2E/DX2                !
 ! D23   D(1,5,30,33)         -179.9892         estimate D2E/DX2                !
 ! D24   D(1,5,30,90)            0.065          estimate D2E/DX2                !
 ! D25   D(43,5,30,33)          -0.0117         estimate D2E/DX2                !
 ! D26   D(43,5,30,90)        -179.9575         estimate D2E/DX2                !
 ! D27   D(1,5,43,38)           64.0553         estimate D2E/DX2                !
 ! D28   D(1,5,43,61)         -179.575          estimate D2E/DX2                !
 ! D29   D(1,5,43,87)          -63.1993         estimate D2E/DX2                !
 ! D30   D(30,5,43,38)        -115.9216         estimate D2E/DX2                !
 ! D31   D(30,5,43,61)           0.4481         estimate D2E/DX2                !
 ! D32   D(30,5,43,87)         116.8238         estimate D2E/DX2                !
 ! D33   D(35,6,17,14)          -9.9231         estimate D2E/DX2                !
 ! D34   D(35,6,17,63)         164.1511         estimate D2E/DX2                !
 ! D35   D(37,6,17,14)         163.9774         estimate D2E/DX2                !
 ! D36   D(37,6,17,63)         -21.9484         estimate D2E/DX2                !
 ! D37   D(17,6,35,34)        -174.8209         estimate D2E/DX2                !
 ! D38   D(17,6,35,64)           9.6714         estimate D2E/DX2                !
 ! D39   D(37,6,35,34)          10.8605         estimate D2E/DX2                !
 ! D40   D(37,6,35,64)        -164.6473         estimate D2E/DX2                !
 ! D41   D(17,6,37,44)         -15.6166         estimate D2E/DX2                !
 ! D42   D(17,6,37,57)         172.0762         estimate D2E/DX2                !
 ! D43   D(35,6,37,44)         158.391          estimate D2E/DX2                !
 ! D44   D(35,6,37,57)         -13.9161         estimate D2E/DX2                !
 ! D45   D(32,8,20,14)           9.5912         estimate D2E/DX2                !
 ! D46   D(32,8,20,86)        -166.1205         estimate D2E/DX2                !
 ! D47   D(93,8,20,14)        -176.4315         estimate D2E/DX2                !
 ! D48   D(93,8,20,86)           7.8568         estimate D2E/DX2                !
 ! D49   D(20,8,32,3)           -6.5487         estimate D2E/DX2                !
 ! D50   D(20,8,32,51)         170.9831         estimate D2E/DX2                !
 ! D51   D(93,8,32,3)          179.3849         estimate D2E/DX2                !
 ! D52   D(93,8,32,51)          -3.0832         estimate D2E/DX2                !
 ! D53   D(20,8,93,16)          -3.2667         estimate D2E/DX2                !
 ! D54   D(20,8,93,23)         176.5595         estimate D2E/DX2                !
 ! D55   D(32,8,93,16)         170.6803         estimate D2E/DX2                !
 ! D56   D(32,8,93,23)          -9.4935         estimate D2E/DX2                !
 ! D57   D(48,12,31,58)       -179.0385         estimate D2E/DX2                !
 ! D58   D(48,12,31,83)        -59.6483         estimate D2E/DX2                !
 ! D59   D(48,12,31,94)         60.4095         estimate D2E/DX2                !
 ! D60   D(81,12,31,58)        -63.2016         estimate D2E/DX2                !
 ! D61   D(81,12,31,83)         56.1887         estimate D2E/DX2                !
 ! D62   D(81,12,31,94)        176.2465         estimate D2E/DX2                !
 ! D63   D(85,12,31,58)         54.232          estimate D2E/DX2                !
 ! D64   D(85,12,31,83)        173.6222         estimate D2E/DX2                !
 ! D65   D(85,12,31,94)        -66.3199         estimate D2E/DX2                !
 ! D66   D(31,12,48,77)        -60.3195         estimate D2E/DX2                !
 ! D67   D(31,12,48,88)         59.7361         estimate D2E/DX2                !
 ! D68   D(31,12,48,89)        179.0972         estimate D2E/DX2                !
 ! D69   D(81,12,48,77)       -176.1893         estimate D2E/DX2                !
 ! D70   D(81,12,48,88)        -56.1337         estimate D2E/DX2                !
 ! D71   D(81,12,48,89)         63.2274         estimate D2E/DX2                !
 ! D72   D(85,12,48,77)         66.3552         estimate D2E/DX2                !
 ! D73   D(85,12,48,88)       -173.5892         estimate D2E/DX2                !
 ! D74   D(85,12,48,89)        -54.2281         estimate D2E/DX2                !
 ! D75   D(31,12,85,18)       -115.8928         estimate D2E/DX2                !
 ! D76   D(31,12,85,49)         64.0088         estimate D2E/DX2                !
 ! D77   D(48,12,85,18)        116.917          estimate D2E/DX2                !
 ! D78   D(48,12,85,49)        -63.1815         estimate D2E/DX2                !
 ! D79   D(81,12,85,18)          0.5166         estimate D2E/DX2                !
 ! D80   D(81,12,85,49)       -179.5818         estimate D2E/DX2                !
 ! D81   D(27,13,49,29)          0.0575         estimate D2E/DX2                !
 ! D82   D(27,13,49,85)       -179.8966         estimate D2E/DX2                !
 ! D83   D(84,13,49,29)       -179.9347         estimate D2E/DX2                !
 ! D84   D(84,13,49,85)          0.1113         estimate D2E/DX2                !
 ! D85   D(27,13,84,2)           0.1302         estimate D2E/DX2                !
 ! D86   D(27,13,84,91)       -179.8944         estimate D2E/DX2                !
 ! D87   D(49,13,84,2)        -179.8777         estimate D2E/DX2                !
 ! D88   D(49,13,84,91)          0.0977         estimate D2E/DX2                !
 ! D89   D(20,14,17,6)        -173.9773         estimate D2E/DX2                !
 ! D90   D(20,14,17,63)         11.5303         estimate D2E/DX2                !
 ! D91   D(56,14,17,6)          10.8183         estimate D2E/DX2                !
 ! D92   D(56,14,17,63)       -163.6742         estimate D2E/DX2                !
 ! D93   D(17,14,20,8)        -175.5538         estimate D2E/DX2                !
 ! D94   D(17,14,20,86)          0.0648         estimate D2E/DX2                !
 ! D95   D(56,14,20,8)          -0.242          estimate D2E/DX2                !
 ! D96   D(56,14,20,86)        175.3765         estimate D2E/DX2                !
 ! D97   D(17,14,56,3)         163.5319         estimate D2E/DX2                !
 ! D98   D(17,14,56,64)        -10.9328         estimate D2E/DX2                !
 ! D99   D(20,14,56,3)         -11.6763         estimate D2E/DX2                !
 ! D100  D(20,14,56,64)        173.859          estimate D2E/DX2                !
 ! D101  D(34,15,24,25)       -176.8459         estimate D2E/DX2                !
 ! D102  D(34,15,24,33)          2.9595         estimate D2E/DX2                !
 ! D103  D(57,15,24,25)          8.9755         estimate D2E/DX2                !
 ! D104  D(57,15,24,33)       -171.2192         estimate D2E/DX2                !
 ! D105  D(24,15,34,35)        176.9471         estimate D2E/DX2                !
 ! D106  D(24,15,34,50)         -7.228          estimate D2E/DX2                !
 ! D107  D(57,15,34,35)         -8.8469         estimate D2E/DX2                !
 ! D108  D(57,15,34,50)        166.978          estimate D2E/DX2                !
 ! D109  D(24,15,57,37)       -179.6102         estimate D2E/DX2                !
 ! D110  D(24,15,57,40)          2.9137         estimate D2E/DX2                !
 ! D111  D(34,15,57,37)          6.0947         estimate D2E/DX2                !
 ! D112  D(34,15,57,40)       -171.3813         estimate D2E/DX2                !
 ! D113  D(52,16,18,85)        -90.3211         estimate D2E/DX2                !
 ! D114  D(52,16,18,91)         89.7288         estimate D2E/DX2                !
 ! D115  D(93,16,18,85)         87.992          estimate D2E/DX2                !
 ! D116  D(93,16,18,91)        -91.958          estimate D2E/DX2                !
 ! D117  D(18,16,52,80)          0.2343         estimate D2E/DX2                !
 ! D118  D(18,16,52,86)       -179.5115         estimate D2E/DX2                !
 ! D119  D(93,16,52,80)       -177.985          estimate D2E/DX2                !
 ! D120  D(93,16,52,86)          2.2692         estimate D2E/DX2                !
 ! D121  D(18,16,93,8)         179.8413         estimate D2E/DX2                !
 ! D122  D(18,16,93,23)          0.0109         estimate D2E/DX2                !
 ! D123  D(52,16,93,8)          -1.9377         estimate D2E/DX2                !
 ! D124  D(52,16,93,23)        178.2319         estimate D2E/DX2                !
 ! D125  D(6,17,63,22)         171.1211         estimate D2E/DX2                !
 ! D126  D(6,17,63,96)         -16.5785         estimate D2E/DX2                !
 ! D127  D(14,17,63,22)        -14.6952         estimate D2E/DX2                !
 ! D128  D(14,17,63,96)        157.6052         estimate D2E/DX2                !
 ! D129  D(16,18,85,12)         -0.0407         estimate D2E/DX2                !
 ! D130  D(16,18,85,49)       -179.9448         estimate D2E/DX2                !
 ! D131  D(91,18,85,12)        179.9078         estimate D2E/DX2                !
 ! D132  D(91,18,85,49)          0.0037         estimate D2E/DX2                !
 ! D133  D(16,18,91,39)         -0.1377         estimate D2E/DX2                !
 ! D134  D(16,18,91,84)       -179.8565         estimate D2E/DX2                !
 ! D135  D(85,18,91,39)        179.9138         estimate D2E/DX2                !
 ! D136  D(85,18,91,84)          0.195          estimate D2E/DX2                !
 ! D137  D(50,19,36,4)         166.8139         estimate D2E/DX2                !
 ! D138  D(50,19,36,64)         -5.4493         estimate D2E/DX2                !
 ! D139  D(71,19,36,4)         -10.6535         estimate D2E/DX2                !
 ! D140  D(71,19,36,64)        177.0832         estimate D2E/DX2                !
 ! D141  D(36,19,50,34)         -6.1289         estimate D2E/DX2                !
 ! D142  D(36,19,50,53)        179.6632         estimate D2E/DX2                !
 ! D143  D(71,19,50,34)        171.4041         estimate D2E/DX2                !
 ! D144  D(71,19,50,53)         -2.8038         estimate D2E/DX2                !
 ! D145  D(8,20,86,22)         166.4259         estimate D2E/DX2                !
 ! D146  D(8,20,86,52)          -7.5088         estimate D2E/DX2                !
 ! D147  D(14,20,86,22)         -9.2841         estimate D2E/DX2                !
 ! D148  D(14,20,86,52)        176.7812         estimate D2E/DX2                !
 ! D149  D(3,21,119,120)        48.3358         estimate D2E/DX2                !
 ! D150  D(3,21,119,122)      -138.4647         estimate D2E/DX2                !
 ! D151  D(82,22,63,17)       -176.7678         estimate D2E/DX2                !
 ! D152  D(82,22,63,96)         10.9431         estimate D2E/DX2                !
 ! D153  D(86,22,63,17)          5.8001         estimate D2E/DX2                !
 ! D154  D(86,22,63,96)       -166.489          estimate D2E/DX2                !
 ! D155  D(63,22,86,20)          6.437          estimate D2E/DX2                !
 ! D156  D(63,22,86,52)       -179.5432         estimate D2E/DX2                !
 ! D157  D(82,22,86,20)       -171.0621         estimate D2E/DX2                !
 ! D158  D(82,22,86,52)          2.9577         estimate D2E/DX2                !
 ! D159  D(15,24,33,30)       -179.5275         estimate D2E/DX2                !
 ! D160  D(15,24,33,53)          1.7348         estimate D2E/DX2                !
 ! D161  D(25,24,33,30)          0.2825         estimate D2E/DX2                !
 ! D162  D(25,24,33,53)       -178.4552         estimate D2E/DX2                !
 ! D163  D(41,26,39,54)        -62.6963         estimate D2E/DX2                !
 ! D164  D(41,26,39,78)       -178.5444         estimate D2E/DX2                !
 ! D165  D(41,26,39,91)         54.6153         estimate D2E/DX2                !
 ! D166  D(42,26,39,54)        176.8209         estimate D2E/DX2                !
 ! D167  D(42,26,39,78)         60.9728         estimate D2E/DX2                !
 ! D168  D(42,26,39,91)        -65.8674         estimate D2E/DX2                !
 ! D169  D(65,26,39,54)         56.7283         estimate D2E/DX2                !
 ! D170  D(65,26,39,78)        -59.1198         estimate D2E/DX2                !
 ! D171  D(65,26,39,91)        174.04           estimate D2E/DX2                !
 ! D172  D(5,30,33,24)          90.926          estimate D2E/DX2                !
 ! D173  D(5,30,33,53)         -90.2698         estimate D2E/DX2                !
 ! D174  D(90,30,33,24)        -89.1266         estimate D2E/DX2                !
 ! D175  D(90,30,33,53)         89.6775         estimate D2E/DX2                !
 ! D176  D(5,30,90,47)         179.9753         estimate D2E/DX2                !
 ! D177  D(5,30,90,76)          -0.0476         estimate D2E/DX2                !
 ! D178  D(33,30,90,47)          0.0297         estimate D2E/DX2                !
 ! D179  D(33,30,90,76)       -179.9932         estimate D2E/DX2                !
 ! D180  D(24,33,53,50)         -1.9075         estimate D2E/DX2                !
 ! D181  D(24,33,53,72)        178.3056         estimate D2E/DX2                !
 ! D182  D(30,33,53,50)        179.354          estimate D2E/DX2                !
 ! D183  D(30,33,53,72)         -0.4329         estimate D2E/DX2                !
 ! D184  D(15,34,35,6)           0.1496         estimate D2E/DX2                !
 ! D185  D(15,34,35,64)        175.7619         estimate D2E/DX2                !
 ! D186  D(50,34,35,6)        -175.5834         estimate D2E/DX2                !
 ! D187  D(50,34,35,64)          0.0289         estimate D2E/DX2                !
 ! D188  D(15,34,50,19)       -167.0658         estimate D2E/DX2                !
 ! D189  D(15,34,50,53)          7.0479         estimate D2E/DX2                !
 ! D190  D(35,34,50,19)          8.7584         estimate D2E/DX2                !
 ! D191  D(35,34,50,53)       -177.1279         estimate D2E/DX2                !
 ! D192  D(6,35,64,36)         164.5034         estimate D2E/DX2                !
 ! D193  D(6,35,64,56)          -9.7893         estimate D2E/DX2                !
 ! D194  D(34,35,64,36)        -11.0092         estimate D2E/DX2                !
 ! D195  D(34,35,64,56)        174.698          estimate D2E/DX2                !
 ! D196  D(4,36,64,35)        -158.3153         estimate D2E/DX2                !
 ! D197  D(4,36,64,56)          15.6759         estimate D2E/DX2                !
 ! D198  D(19,36,64,35)         13.9518         estimate D2E/DX2                !
 ! D199  D(19,36,64,56)       -172.0571         estimate D2E/DX2                !
 ! D200  D(6,37,44,97)         157.9494         estimate D2E/DX2                !
 ! D201  D(57,37,44,97)        -29.5163         estimate D2E/DX2                !
 ! D202  D(6,37,57,15)           5.521          estimate D2E/DX2                !
 ! D203  D(6,37,57,40)        -177.0681         estimate D2E/DX2                !
 ! D204  D(44,37,57,15)       -166.7986         estimate D2E/DX2                !
 ! D205  D(44,37,57,40)         10.6123         estimate D2E/DX2                !
 ! D206  D(9,38,43,5)          173.7736         estimate D2E/DX2                !
 ! D207  D(9,38,43,61)          56.4138         estimate D2E/DX2                !
 ! D208  D(9,38,43,87)         -59.4712         estimate D2E/DX2                !
 ! D209  D(28,38,43,5)         -66.1487         estimate D2E/DX2                !
 ! D210  D(28,38,43,61)        176.4915         estimate D2E/DX2                !
 ! D211  D(28,38,43,87)         60.6065         estimate D2E/DX2                !
 ! D212  D(79,38,43,5)          54.3976         estimate D2E/DX2                !
 ! D213  D(79,38,43,61)        -62.9622         estimate D2E/DX2                !
 ! D214  D(79,38,43,87)       -178.8473         estimate D2E/DX2                !
 ! D215  D(26,39,78,55)        179.4613         estimate D2E/DX2                !
 ! D216  D(26,39,78,59)         60.1398         estimate D2E/DX2                !
 ! D217  D(26,39,78,95)        -59.892          estimate D2E/DX2                !
 ! D218  D(54,39,78,55)         63.5147         estimate D2E/DX2                !
 ! D219  D(54,39,78,59)        -55.8069         estimate D2E/DX2                !
 ! D220  D(54,39,78,95)       -175.8387         estimate D2E/DX2                !
 ! D221  D(91,39,78,55)        -53.9179         estimate D2E/DX2                !
 ! D222  D(91,39,78,59)       -173.2394         estimate D2E/DX2                !
 ! D223  D(91,39,78,95)         66.7288         estimate D2E/DX2                !
 ! D224  D(26,39,91,18)       -114.0185         estimate D2E/DX2                !
 ! D225  D(26,39,91,84)         65.6928         estimate D2E/DX2                !
 ! D226  D(54,39,91,18)          2.3603         estimate D2E/DX2                !
 ! D227  D(54,39,91,84)       -177.9283         estimate D2E/DX2                !
 ! D228  D(78,39,91,18)        118.7689         estimate D2E/DX2                !
 ! D229  D(78,39,91,84)        -61.5198         estimate D2E/DX2                !
 ! D230  D(5,43,87,7)         -173.4764         estimate D2E/DX2                !
 ! D231  D(5,43,87,10)         -54.1151         estimate D2E/DX2                !
 ! D232  D(5,43,87,11)          66.4542         estimate D2E/DX2                !
 ! D233  D(38,43,87,7)          59.7914         estimate D2E/DX2                !
 ! D234  D(38,43,87,10)        179.1527         estimate D2E/DX2                !
 ! D235  D(38,43,87,11)        -60.278          estimate D2E/DX2                !
 ! D236  D(61,43,87,7)         -56.1025         estimate D2E/DX2                !
 ! D237  D(61,43,87,10)         63.2588         estimate D2E/DX2                !
 ! D238  D(61,43,87,11)       -176.172          estimate D2E/DX2                !
 ! D239  D(37,44,97,98)        139.9703         estimate D2E/DX2                !
 ! D240  D(37,44,97,100)       -46.781          estimate D2E/DX2                !
 ! D241  D(73,47,60,66)         59.7111         estimate D2E/DX2                !
 ! D242  D(73,47,60,67)        179.097          estimate D2E/DX2                !
 ! D243  D(73,47,60,68)        -60.3359         estimate D2E/DX2                !
 ! D244  D(90,47,60,66)       -173.6105         estimate D2E/DX2                !
 ! D245  D(90,47,60,67)        -54.2247         estimate D2E/DX2                !
 ! D246  D(90,47,60,68)         66.3424         estimate D2E/DX2                !
 ! D247  D(92,47,60,66)        -56.169          estimate D2E/DX2                !
 ! D248  D(92,47,60,67)         63.2168         estimate D2E/DX2                !
 ! D249  D(92,47,60,68)       -176.2161         estimate D2E/DX2                !
 ! D250  D(60,47,73,69)       -179.0693         estimate D2E/DX2                !
 ! D251  D(60,47,73,70)         60.3531         estimate D2E/DX2                !
 ! D252  D(60,47,73,74)        -59.6916         estimate D2E/DX2                !
 ! D253  D(90,47,73,69)         54.2701         estimate D2E/DX2                !
 ! D254  D(90,47,73,70)        -66.3075         estimate D2E/DX2                !
 ! D255  D(90,47,73,74)        173.6478         estimate D2E/DX2                !
 ! D256  D(92,47,73,69)        -63.1776         estimate D2E/DX2                !
 ! D257  D(92,47,73,70)        176.2448         estimate D2E/DX2                !
 ! D258  D(92,47,73,74)         56.2001         estimate D2E/DX2                !
 ! D259  D(60,47,90,30)        116.246          estimate D2E/DX2                !
 ! D260  D(60,47,90,76)        -63.7304         estimate D2E/DX2                !
 ! D261  D(73,47,90,30)       -116.6            estimate D2E/DX2                !
 ! D262  D(73,47,90,76)         63.4236         estimate D2E/DX2                !
 ! D263  D(92,47,90,30)         -0.1794         estimate D2E/DX2                !
 ! D264  D(92,47,90,76)        179.8442         estimate D2E/DX2                !
 ! D265  D(13,49,85,12)        179.9359         estimate D2E/DX2                !
 ! D266  D(13,49,85,18)         -0.1589         estimate D2E/DX2                !
 ! D267  D(29,49,85,12)         -0.0177         estimate D2E/DX2                !
 ! D268  D(29,49,85,18)        179.8875         estimate D2E/DX2                !
 ! D269  D(19,50,53,33)        171.4916         estimate D2E/DX2                !
 ! D270  D(19,50,53,72)         -8.7268         estimate D2E/DX2                !
 ! D271  D(34,50,53,33)         -2.6004         estimate D2E/DX2                !
 ! D272  D(34,50,53,72)        177.1812         estimate D2E/DX2                !
 ! D273  D(16,52,86,20)          2.5764         estimate D2E/DX2                !
 ! D274  D(16,52,86,22)       -171.3207         estimate D2E/DX2                !
 ! D275  D(80,52,86,20)       -177.1631         estimate D2E/DX2                !
 ! D276  D(80,52,86,22)          8.9398         estimate D2E/DX2                !
 ! D277  D(3,56,64,35)        -163.9002         estimate D2E/DX2                !
 ! D278  D(3,56,64,36)          22.212          estimate D2E/DX2                !
 ! D279  D(14,56,64,35)         10.1556         estimate D2E/DX2                !
 ! D280  D(14,56,64,36)       -163.7322         estimate D2E/DX2                !
 ! D281  D(17,63,96,108)       159.6764         estimate D2E/DX2                !
 ! D282  D(22,63,96,108)       -27.8101         estimate D2E/DX2                !
 ! D283  D(1,75,76,62)        -179.9865         estimate D2E/DX2                !
 ! D284  D(1,75,76,90)           0.0088         estimate D2E/DX2                !
 ! D285  D(46,75,76,62)          0.0122         estimate D2E/DX2                !
 ! D286  D(46,75,76,90)       -179.9925         estimate D2E/DX2                !
 ! D287  D(62,76,90,30)       -179.9949         estimate D2E/DX2                !
 ! D288  D(62,76,90,47)         -0.0175         estimate D2E/DX2                !
 ! D289  D(75,76,90,30)          0.0098         estimate D2E/DX2                !
 ! D290  D(75,76,90,47)        179.9871         estimate D2E/DX2                !
 ! D291  D(2,84,91,18)         179.7303         estimate D2E/DX2                !
 ! D292  D(2,84,91,39)           0.0089         estimate D2E/DX2                !
 ! D293  D(13,84,91,18)         -0.2449         estimate D2E/DX2                !
 ! D294  D(13,84,91,39)       -179.9662         estimate D2E/DX2                !
 ! D295  D(63,96,108,109)      -47.9227         estimate D2E/DX2                !
 ! D296  D(63,96,108,111)      138.808          estimate D2E/DX2                !
 ! D297  D(44,97,98,99)        174.5716         estimate D2E/DX2                !
 ! D298  D(44,97,98,107)        -5.1296         estimate D2E/DX2                !
 ! D299  D(100,97,98,99)         1.236          estimate D2E/DX2                !
 ! D300  D(100,97,98,107)     -178.4653         estimate D2E/DX2                !
 ! D301  D(44,97,100,101)     -174.3533         estimate D2E/DX2                !
 ! D302  D(44,97,100,102)        4.4344         estimate D2E/DX2                !
 ! D303  D(98,97,100,101)       -1.3462         estimate D2E/DX2                !
 ! D304  D(98,97,100,102)      177.4415         estimate D2E/DX2                !
 ! D305  D(97,98,99,105)        -0.4104         estimate D2E/DX2                !
 ! D306  D(97,98,99,106)       179.9154         estimate D2E/DX2                !
 ! D307  D(107,98,99,105)      179.2879         estimate D2E/DX2                !
 ! D308  D(107,98,99,106)       -0.3863         estimate D2E/DX2                !
 ! D309  D(98,99,105,101)       -0.2893         estimate D2E/DX2                !
 ! D310  D(98,99,105,104)     -179.7888         estimate D2E/DX2                !
 ! D311  D(106,99,105,101)     179.3836         estimate D2E/DX2                !
 ! D312  D(106,99,105,104)      -0.1158         estimate D2E/DX2                !
 ! D313  D(97,100,101,103)     179.8787         estimate D2E/DX2                !
 ! D314  D(97,100,101,105)       0.6352         estimate D2E/DX2                !
 ! D315  D(102,100,101,103)      1.0837         estimate D2E/DX2                !
 ! D316  D(102,100,101,105)   -178.1598         estimate D2E/DX2                !
 ! D317  D(100,101,105,99)       0.1738         estimate D2E/DX2                !
 ! D318  D(100,101,105,104)    179.6737         estimate D2E/DX2                !
 ! D319  D(103,101,105,99)    -179.0653         estimate D2E/DX2                !
 ! D320  D(103,101,105,104)      0.4346         estimate D2E/DX2                !
 ! D321  D(96,108,109,110)    -174.4022         estimate D2E/DX2                !
 ! D322  D(96,108,109,118)       4.3811         estimate D2E/DX2                !
 ! D323  D(111,108,109,110)     -1.3778         estimate D2E/DX2                !
 ! D324  D(111,108,109,118)    177.4055         estimate D2E/DX2                !
 ! D325  D(96,108,111,112)     174.6469         estimate D2E/DX2                !
 ! D326  D(96,108,111,113)      -5.1008         estimate D2E/DX2                !
 ! D327  D(109,108,111,112)      1.2918         estimate D2E/DX2                !
 ! D328  D(109,108,111,113)   -178.4559         estimate D2E/DX2                !
 ! D329  D(108,109,110,116)      0.6219         estimate D2E/DX2                !
 ! D330  D(108,109,110,117)    179.8881         estimate D2E/DX2                !
 ! D331  D(118,109,110,116)   -178.1686         estimate D2E/DX2                !
 ! D332  D(118,109,110,117)      1.0976         estimate D2E/DX2                !
 ! D333  D(109,110,116,112)      0.207          estimate D2E/DX2                !
 ! D334  D(109,110,116,115)    179.7086         estimate D2E/DX2                !
 ! D335  D(117,110,116,112)   -179.0551         estimate D2E/DX2                !
 ! D336  D(117,110,116,115)      0.4465         estimate D2E/DX2                !
 ! D337  D(108,111,112,114)    179.8711         estimate D2E/DX2                !
 ! D338  D(108,111,112,116)     -0.4455         estimate D2E/DX2                !
 ! D339  D(113,111,112,114)     -0.3837         estimate D2E/DX2                !
 ! D340  D(113,111,112,116)    179.2997         estimate D2E/DX2                !
 ! D341  D(111,112,116,110)     -0.2981         estimate D2E/DX2                !
 ! D342  D(111,112,116,115)   -179.7992         estimate D2E/DX2                !
 ! D343  D(114,112,116,110)    179.3841         estimate D2E/DX2                !
 ! D344  D(114,112,116,115)     -0.117          estimate D2E/DX2                !
 ! D345  D(21,119,120,121)     174.3397         estimate D2E/DX2                !
 ! D346  D(21,119,120,129)      -4.4742         estimate D2E/DX2                !
 ! D347  D(122,119,120,121)      1.3889         estimate D2E/DX2                !
 ! D348  D(122,119,120,129)   -177.425          estimate D2E/DX2                !
 ! D349  D(21,119,122,123)    -174.6004         estimate D2E/DX2                !
 ! D350  D(21,119,122,124)       5.1812         estimate D2E/DX2                !
 ! D351  D(120,119,122,123)     -1.313          estimate D2E/DX2                !
 ! D352  D(120,119,122,124)    178.4687         estimate D2E/DX2                !
 ! D353  D(119,120,121,127)     -0.6229         estimate D2E/DX2                !
 ! D354  D(119,120,121,128)   -179.8772         estimate D2E/DX2                !
 ! D355  D(129,120,121,127)    178.1978         estimate D2E/DX2                !
 ! D356  D(129,120,121,128)     -1.0565         estimate D2E/DX2                !
 ! D357  D(120,121,127,123)     -0.2058         estimate D2E/DX2                !
 ! D358  D(120,121,127,126)   -179.6848         estimate D2E/DX2                !
 ! D359  D(128,121,127,123)    179.0443         estimate D2E/DX2                !
 ! D360  D(128,121,127,126)     -0.4346         estimate D2E/DX2                !
 ! D361  D(119,122,123,125)   -179.8517         estimate D2E/DX2                !
 ! D362  D(119,122,123,127)      0.4668         estimate D2E/DX2                !
 ! D363  D(124,122,123,125)      0.3688         estimate D2E/DX2                !
 ! D364  D(124,122,123,127)   -179.3127         estimate D2E/DX2                !
 ! D365  D(122,123,127,121)      0.2866         estimate D2E/DX2                !
 ! D366  D(122,123,127,126)    179.765          estimate D2E/DX2                !
 ! D367  D(125,123,127,121)   -179.3937         estimate D2E/DX2                !
 ! D368  D(125,123,127,126)      0.0847         estimate D2E/DX2                !
 ! D369  D(4,130,131,132)     -174.4394         estimate D2E/DX2                !
 ! D370  D(4,130,131,140)        5.2472         estimate D2E/DX2                !
 ! D371  D(133,130,131,132)     -1.1883         estimate D2E/DX2                !
 ! D372  D(133,130,131,140)    178.4983         estimate D2E/DX2                !
 ! D373  D(4,130,133,134)      174.1811         estimate D2E/DX2                !
 ! D374  D(4,130,133,135)       -4.5586         estimate D2E/DX2                !
 ! D375  D(131,130,133,134)      1.2697         estimate D2E/DX2                !
 ! D376  D(131,130,133,135)   -177.4699         estimate D2E/DX2                !
 ! D377  D(130,131,132,138)      0.4335         estimate D2E/DX2                !
 ! D378  D(130,131,132,139)   -179.9111         estimate D2E/DX2                !
 ! D379  D(140,131,132,138)   -179.2499         estimate D2E/DX2                !
 ! D380  D(140,131,132,139)      0.4055         estimate D2E/DX2                !
 ! D381  D(131,132,138,134)      0.2248         estimate D2E/DX2                !
 ! D382  D(131,132,138,137)    179.7524         estimate D2E/DX2                !
 ! D383  D(139,132,138,134)   -179.4292         estimate D2E/DX2                !
 ! D384  D(139,132,138,137)      0.0984         estimate D2E/DX2                !
 ! D385  D(130,133,134,136)   -179.8141         estimate D2E/DX2                !
 ! D386  D(130,133,134,138)     -0.6006         estimate D2E/DX2                !
 ! D387  D(135,133,134,136)     -1.0667         estimate D2E/DX2                !
 ! D388  D(135,133,134,138)    178.1468         estimate D2E/DX2                !
 ! D389  D(133,134,138,132)     -0.1385         estimate D2E/DX2                !
 ! D390  D(133,134,138,137)   -179.6665         estimate D2E/DX2                !
 ! D391  D(136,134,138,132)    179.0705         estimate D2E/DX2                !
 ! D392  D(136,134,138,137)     -0.4575         estimate D2E/DX2                !
 --------------------------------------------------------------------------------
 Trust Radius=3.00D-01 FncErr=5.00D-06 GrdErr=5.00D-06 EigMax=2.50D+02 EigMin=1.00D-04
 Number of steps in this run=    816 maximum allowed number of steps=    840.
 GradGradGradGradGradGradGradGradGradGradGradGradGradGradGradGradGradGrad

 Stoichiometry    C72H58N2O8
 Framework group  C1[X(C72H58N2O8)]
 Deg. of freedom   414
 Full point group                 C1      NOp   1
 Largest Abelian subgroup         C1      NOp   1
 Largest concise Abelian subgroup C1      NOp   1
                         Standard orientation:                         
 ---------------------------------------------------------------------
 Center     Atomic      Atomic             Coordinates (Angstroms)
 Number     Number       Type             X           Y           Z
 ---------------------------------------------------------------------
      1          6           0       -9.279733   -0.028140   -1.420291
      2          1           0        9.749778    0.058190    2.517279
      3          6           0        1.507698   -2.420663   -0.359258
      4          8           0       -0.870112   -3.531489    0.854437
      5          6           0       -7.873373   -0.025160   -1.374880
      6          6           0       -0.739543    1.263436    0.054734
[...]
 Alpha virt. eigenvalues --    1.93694   1.93840   1.94081   1.94337   1.94859
 Alpha virt. eigenvalues --    1.95048   1.95522   1.95573   1.96334   1.96863
 Alpha virt. eigenvalues --    1.97087   1.97293   1.97552   1.97572   1.97876
 Alpha virt. eigenvalues --    1.97968   1.98022   1.98128   1.98161   1.98267
 Alpha virt. eigenvalues --    1.98287   1.99061   1.99941   2.00227   2.00330
 Alpha virt. eigenvalues --    2.00644   2.00915   2.01089   2.01401   2.01947
 Alpha virt. eigenvalues --    2.02077   2.02311   2.02694   2.03097   2.03172
 Alpha virt. eigenvalues --    2.03409   2.03552   2.04108   2.04260   2.04345
 Alpha virt. eigenvalues --    2.04458   2.04820   2.04888   2.05041   2.05188
 Alpha virt. eigenvalues --    2.05204   2.05281   2.05311   2.05390   2.05803
 Alpha virt. eigenvalues --    2.06125   2.06435   2.06570   2.06665   2.07167
 Alpha virt. eigenvalues --    2.07474   2.07512   2.07546   2.07671   2.07904
 Alpha virt. eigenvalues --    2.08410   2.08437   2.08631   2.09145   2.09935
 Alpha virt. eigenvalues --    2.10074   2.10656   2.10750   2.10897   2.11063
 Alpha virt. eigenvalues --    2.11586   2.11664   2.11937   2.12283   2.12651
 Alpha virt. eigenvalues --    2.13300   2.13486   2.13886   2.13888   2.14097
 Alpha virt. eigenvalues --    2.14212   2.14545   2.14722   2.15186   2.15308
 Alpha virt. eigenvalues --    2.15728   2.16282   2.16362   2.16701   2.17379
 Alpha virt. eigenvalues --    2.17967   2.18778   2.19089   2.19860   2.20006
 Alpha virt. eigenvalues --    2.20031   2.20470   2.20763   2.21131   2.21276
 Alpha virt. eigenvalues --    2.21883   2.22368   2.22900   2.23087   2.23322
 Alpha virt. eigenvalues --    2.23323   2.23769   2.24359   2.24570   2.24764
 Alpha virt. eigenvalues --    2.25313   2.25399   2.25582   2.25651   2.25895
 Alpha virt. eigenvalues --    2.26299   2.26765   2.27006   2.27217   2.27772
 Alpha virt. eigenvalues --    2.27804   2.28308   2.28506   2.28892   2.29732
 Alpha virt. eigenvalues --    2.29961   2.31077   2.31118   2.31759   2.32021
 Alpha virt. eigenvalues --    2.32661   2.32699   2.33001   2.33256   2.33651
 Alpha virt. eigenvalues --    2.33721   2.34084   2.34336   2.34553   2.34647
 Alpha virt. eigenvalues --    2.34732   2.35054   2.35299   2.35426   2.35619
 Alpha virt. eigenvalues --    2.35636   2.36477   2.36793   2.36952   2.37732
 Alpha virt. eigenvalues --    2.37741   2.38007   2.38620   2.38830   2.38871
 Alpha virt. eigenvalues --    2.39069   2.39087   2.39436   2.39843   2.39937
 Alpha virt. eigenvalues --    2.40023   2.40288   2.41015   2.41146   2.41238
 Alpha virt. eigenvalues --    2.41282   2.41431   2.41489   2.41534   2.41749
 Alpha virt. eigenvalues --    2.41891   2.42058   2.42700   2.42867   2.43141
 Alpha virt. eigenvalues --    2.43479   2.43769   2.44010   2.44062   2.45326
 Alpha virt. eigenvalues --    2.45432   2.45676   2.45917   2.45921   2.46131
 Alpha virt. eigenvalues --    2.46932   2.46937   2.47771   2.47883   2.48320
 Alpha virt. eigenvalues --    2.48763   2.50877   2.50987   2.51144   2.51752
 Alpha virt. eigenvalues --    2.52378   2.52426   2.52550   2.53231   2.55449
 Alpha virt. eigenvalues --    2.55863   2.55995   2.56203   2.56626   2.57002
 Alpha virt. eigenvalues --    2.57498   2.57767   2.58420   2.58448   2.59021
 Alpha virt. eigenvalues --    2.59174   2.59342   2.59466   2.59564   2.59700
 Alpha virt. eigenvalues --    2.59787   2.60114   2.60171   2.61521   2.62692
 Alpha virt. eigenvalues --    2.62968   2.63994   2.65395   2.65476   2.65748
 Alpha virt. eigenvalues --    2.65750   2.65793   2.66311   2.66458   2.66495
 Alpha virt. eigenvalues --    2.67071   2.67105   2.67892   2.67981   2.68819
 Alpha virt. eigenvalues --    2.68956   2.69099   2.69113   2.70029   2.70060
 Alpha virt. eigenvalues --    2.70090   2.70296   2.70824   2.70835   2.70882
 Alpha virt. eigenvalues --    2.71351   2.71462   2.71934   2.72099   2.72145
 Alpha virt. eigenvalues --    2.72191   2.72440   2.72529   2.72660   2.72667
 Alpha virt. eigenvalues --    2.73402   2.73794   2.74283   2.74375   2.75331
 Alpha virt. eigenvalues --    2.75647   2.75749   2.76177   2.76303   2.76507
 Alpha virt. eigenvalues --    2.76585   2.77041   2.77593   2.77859   2.78079
 Alpha virt. eigenvalues --    2.79689   2.80457   2.80547   2.81511   2.81633
 Alpha virt. eigenvalues --    2.81726   2.81759   2.82401   2.82632   2.82699
 Alpha virt. eigenvalues --    2.82791   2.83302   2.83362   2.83735   2.83890
 Alpha virt. eigenvalues --    2.84199   2.84428   2.84436   2.85462   2.85474
 Alpha virt. eigenvalues --    2.88122   2.89263   2.89374   2.89394   2.89396
 Alpha virt. eigenvalues --    2.90948   2.91106   2.91227   2.91538   2.91676
 Alpha virt. eigenvalues --    2.93625   2.93839   2.94049   2.94054   2.94660
 Alpha virt. eigenvalues --    2.94740   2.94746   2.95041   2.95279   2.95610
 Alpha virt. eigenvalues --    2.95707   2.96585   2.96701   2.96765   2.97406
 Alpha virt. eigenvalues --    2.98589   2.98978   2.99053   2.99084   2.99098
 Alpha virt. eigenvalues --    2.99815   3.00159   3.01460   3.01463   3.01558
 Alpha virt. eigenvalues --    3.01596   3.01858   3.02170   3.02175   3.02287
 Alpha virt. eigenvalues --    3.03257   3.03274   3.04583   3.04621   3.04761
 Alpha virt. eigenvalues --    3.05147   3.06671   3.08400   3.08533   3.08565
 Alpha virt. eigenvalues --    3.08566   3.09410   3.09480   3.09490   3.09923
 Alpha virt. eigenvalues --    3.09930   3.09950   3.10798   3.11175   3.11175
 Alpha virt. eigenvalues --    3.11832   3.12312   3.12628   3.12766   3.13763
 Alpha virt. eigenvalues --    3.13766   3.17110   3.17126   3.18208   3.18716
 Alpha virt. eigenvalues --    3.20380   3.20469   3.20741   3.20755   3.21484
 Alpha virt. eigenvalues --    3.21536   3.21606   3.22745   3.22817   3.24480
 Alpha virt. eigenvalues --    3.24662   3.26110   3.26151   3.27228   3.28941
 Alpha virt. eigenvalues --    3.30965   3.32483   3.33897   3.35204   3.35210
 Alpha virt. eigenvalues --    3.36777   3.37189   3.39742   3.40253   3.45954
 Alpha virt. eigenvalues --    3.47161   3.49270   3.50042   3.51158   3.55276
 Alpha virt. eigenvalues --    3.55825   3.60712   3.61058   3.63014   3.63334
 Alpha virt. eigenvalues --    3.67587   3.67721   3.69406   3.70775   3.71202
 Alpha virt. eigenvalues --    3.72553   3.74412   3.77157   3.79434   3.80210
 Alpha virt. eigenvalues --    3.81283   3.81773   3.82331   3.85726
          Condensed to atoms (all electrons):
 Mulliken charges:
               1
     1  C   -0.115454
     2  H    0.041779
     3  C    0.141235
     4  O   -0.315061
     5  C    0.026333
     6  C    0.029654
     7  H    0.045832
     8  C   -0.049290
     9  H    0.045892
    10  H    0.039483
    11  H    0.041039
    12  C   -0.109433
    13  C   -0.005468
    14  C    0.016281
    15  C   -0.049201
    16  N   -0.346338
    17  C    0.029595
    18  C   -0.005485
    19  C   -0.099786
    20  C    0.152471
    21  O   -0.315062
    22  C   -0.099809
    23  O   -0.295104
    24  C    0.309704
    25  O   -0.295122
    26  C   -0.028183
    27  H    0.045672
    28  H    0.040774
    29  H    0.041962
    30  C   -0.005484
    31  C   -0.028157
    32  C   -0.099776
    33  N   -0.346338
    34  C    0.152476
    35  C    0.016281
    36  C    0.141253
    37  C    0.141283
    38  C   -0.028185
    39  C   -0.109113
    40  H    0.059576
    41  H    0.039156
    42  H    0.040773
    43  C   -0.109114
    44  O   -0.315082
    45  H    0.041779
    46  H    0.045672
    47  C   -0.109432
    48  C   -0.028184
    49  C   -0.115917
    50  C   -0.049307
    51  H    0.059576
    52  C    0.309708
    53  C    0.309543
    54  H    0.038727
    55  H    0.039486
    56  C    0.029734
    57  C   -0.099759
    58  H    0.038576
    59  H    0.045832
    60  C   -0.028188
    61  H    0.038728
    62  H    0.041963
    63  C    0.141363
    64  C    0.029731
    65  H    0.045892
    66  H    0.045823
    67  H    0.038586
    68  H    0.040985
    69  H    0.038576
    70  H    0.040973
    71  H    0.059577
    72  O   -0.295110
    73  C   -0.028154
    74  H    0.045825
    75  C   -0.005467
    76  C   -0.115918
    77  H    0.040984
    78  C   -0.028769
    79  H    0.039159
    80  O   -0.295122
    81  H    0.038652
    82  H    0.059571
    83  H    0.045825
    84  C   -0.115454
    85  C    0.028165
    86  C   -0.049206
    87  C   -0.028766
    88  H    0.045823
    89  H    0.038585
    90  C    0.028164
    91  C    0.026333
    92  H    0.038651
    93  C    0.309542
    94  H    0.040974
    95  H    0.041041
    96  O   -0.315083
    97  C    0.175357
    98  C   -0.052408
    99  C   -0.048877
   100  C   -0.029520
   101  C   -0.053923
   102  H    0.053851
   103  H    0.054440
   104  H    0.050339
   105  C   -0.036045
   106  H    0.055121
   107  H    0.044441
   108  C    0.175320
   109  C   -0.029459
   110  C   -0.053935
   111  C   -0.052386
   112  C   -0.048867
   113  H    0.044437
   114  H    0.055124
   115  H    0.050344
   116  C   -0.036028
   117  H    0.054444
   118  H    0.053850
   119  C    0.175316
   120  C   -0.029489
   121  C   -0.053929
   122  C   -0.052380
   123  C   -0.048871
   124  H    0.044441
   125  H    0.055124
   126  H    0.050344
   127  C   -0.036033
   128  H    0.054445
   129  H    0.053842
   130  C    0.175307
   131  C   -0.052377
   132  C   -0.048870
   133  C   -0.029474
   134  C   -0.053931
   135  H    0.053842
   136  H    0.054446
   137  H    0.050346
   138  C   -0.036029
   139  H    0.055125
   140  H    0.044440
 Sum of Mulliken charges =  -0.00000
 Mulliken charges with hydrogens summed into heavy atoms:
               1
     1  C   -0.073674
     3  C    0.141235
     4  O   -0.315061
     5  C    0.026333
     6  C    0.029654
     8  C   -0.049290
    12  C   -0.070781
    13  C    0.040205
    14  C    0.016281
    15  C   -0.049201
    16  N   -0.346338
    17  C    0.029595
    18  C   -0.005485
    19  C   -0.040209
    20  C    0.152471
    21  O   -0.315062
    22  C   -0.040238
    23  O   -0.295104
    24  C    0.309704
    25  O   -0.295122
    26  C    0.097638
    30  C   -0.005484
    31  C    0.097217
    32  C   -0.040199
    33  N   -0.346338
    34  C    0.152476
    35  C    0.016281
    36  C    0.141253
    37  C    0.141283
    38  C    0.097640
    39  C   -0.070386
    43  C   -0.070387
    44  O   -0.315082
    47  C   -0.070781
    48  C    0.097208
    49  C   -0.073955
    50  C   -0.049307
    52  C    0.309708
    53  C    0.309543
    56  C    0.029734
    57  C   -0.040182
    60  C    0.097206
    63  C    0.141363
    64  C    0.029731
    72  O   -0.295110
    73  C    0.097219
    75  C    0.040204
    76  C   -0.073955
    78  C    0.097590
    80  O   -0.295122
    84  C   -0.073675
    85  C    0.028165
    86  C   -0.049206
    87  C    0.097588
    90  C    0.028164
    91  C    0.026333
    93  C    0.309542
    96  O   -0.315083
    97  C    0.175357
    98  C   -0.007967
    99  C    0.006244
   100  C    0.024330
   101  C    0.000518
   105  C    0.014294
   108  C    0.175320
   109  C    0.024391
   110  C    0.000509
   111  C   -0.007949
   112  C    0.006257
   116  C    0.014316
   119  C    0.175316
   120  C    0.024353
   121  C    0.000516
   122  C   -0.007939
   123  C    0.006253
   127  C    0.014311
   130  C    0.175307
   131  C   -0.007936
   132  C    0.006255
   133  C    0.024368
   134  C    0.000515
   138  C    0.014316
 Electronic spatial extent (au):  <R**2>=          84669.2290
 Charge=             -0.0000 electrons
 Dipole moment (field-independent basis, Debye):
    X=              0.0013    Y=              0.0007    Z=             -0.0016  Tot=              0.0021
 Quadrupole moment (field-independent basis, Debye-Ang):
   XX=           -516.8920   YY=           -416.9935   ZZ=           -431.1875
   XY=              0.0211   XZ=              2.4265   YZ=             -0.0119
 Traceless Quadrupole moment (field-independent basis, Debye-Ang):
   XX=            -61.8677   YY=             38.0309   ZZ=             23.8369
   XY=              0.0211   XZ=              2.4265   YZ=             -0.0119
 Octapole moment (field-independent basis, Debye-Ang**2):
  XXX=              0.0154  YYY=             -0.2994  ZZZ=             -0.0219  XYY=              0.0804
  XXY=              0.4129  XXZ=             -0.0067  XZZ=              0.0051  YZZ=              0.0204
  YYZ=             -0.0398  XYZ=              0.6263
 Hexadecapole moment (field-independent basis, Debye-Ang**3):
 XXXX=         -68739.6241 YYYY=         -30926.8582 ZZZZ=          -7143.3446 XXXY=             -0.2513
 XXXZ=            112.1130 YYYX=              1.5711 YYYZ=             -0.0034 ZZZX=             56.1341
 ZZZY=             -0.0713 XXYY=         -19718.8309 XXZZ=         -12085.3332 YYZZ=          -6609.5834
 XXYZ=             -0.5193 YYXZ=             20.2745 ZZXY=              0.0695
 N-N= 1.382085262392D+04 E-N=-3.573385348477D+04  KE= 3.449354784427D+03
 1\1\GINC-NODE002\FOpt\RwB97XD\def2SVP\C72H58N2O8\PSYCHE\07-Feb-2020\0\
 \# wB97XD/Def2SVP Opt # SCRF=(SMD,Solvent=Water) # Integral=(Grid=Ultr
 aFineGrid)\\Geometry optimisation, Mol: A8\\0,1\C,3.4624525347,6.21633
 60789,-6.0910566709\H,-3.0832123728,-5.7584635149,7.3580460011\C,-2.60
 49781871,0.4901250829,0.978782687\O,-1.8180519677,3.273828304,0.943574
 3222\C,2.8656634632,5.2382494059,-5.2892521592\C,1.4040520634,0.020714
 8275,-0.4604710508\H,0.0110061664,4.1050082539,-6.90808451\C,-2.458346
 1126,-1.5753761418,2.2068787831\H,2.0201579706,2.5384120654,-7.3006957
 08\H,0.1702901295,5.4754399214,-5.779907453\H,0.9828190689,5.522800232
 1,-7.3666945419\C,-4.1612521794,-5.7253785956,2.0430980615\C,-4.148011
 7081,-6.6925185497,5.7355218184\C,-0.5405946694,-0.7742601479,0.900401
 5397\C,2.6239954814,2.0535249704,-2.0101251571\N,-2.3911234146,-3.7791
 123671,3.2664070031\C,0.7103978415,-1.0599322212,0.2544417826\C,-2.993
 3718047,-4.7773592501,4.1128498405\C,-0.3698583581,3.8494845266,-0.859
 2088855\C,-1.166573205,-1.783763667,1.6745516771\O,-3.4010704055,1.393
 7169821,0.3611815872\C,0.5339805241,-3.3721485896,1.0529971383\O,-4.17
 49155838,-2.42206628,3.6063323896\C,3.2588050097,3.06951468,-2.8766316
 206\O,4.3423888162,2.9013190294,-3.4066142913\C,-0.5237798253,-4.39993
 62865,6.6947018073\H,-4.6044438136,-7.4497496383,6.3769847351\H,3.0478
 975426,3.9137535612,-7.7674795406\H,-5.0960513104,-7.4333778247,3.9492
 368242\C,3.1589442277,5.254707527,-3.91739319\C,-5.6508128096,-5.47778
 77572,1.7908126353\C,-3.1846720681,-0.4773087343,1.8210000197\N,2.5564
 770898,4.2566373888,-3.0708972902\C,1.3316645356,2.2614940511,-1.47898
 1029\C,0.7055618276,1.2520943659,-0.7047939937\C,-0.9490665968,2.88172
 6704,-0.0170383547\C,2.7701671257,-0.0120721178,-0.7821646688\C,2.6845
 979932,3.3246741555,-6.9103417263\C,-1.7655443464,-3.7322147359,6.0981
 866223\H,4.3935436425,0.8653087782,-1.927063023\H,0.0037891984,-4.9967
 567638,5.9351105022\H,-0.7881732475,-5.0660227304,7.5314291347\C,1.937
 9273909,4.2042466742,-5.904120857\O,3.5659063196,-0.915963188,-0.16449
 63625\H,3.2550083063,6.2309387013,-7.1638792888\H,4.7724663299,7.92517
 3679,-6.182055251\C,4.3222203323,6.2063393557,-1.8467005261\C,-3.67529
 32462,-7.0173087968,1.3809025438\C,-4.4235698107,-6.682432137,4.371092
 6735\C,0.725819481,3.5297240882,-1.6204299831\H,-4.2275721943,-0.38657
 6653,2.1253355978\C,-1.1685289691,-4.0898264319,2.6756677477\C,1.33272
 81728,4.5666789974,-2.4820863359\H,-1.4203449964,-3.0629794439,5.29712
 7146\H,-3.3746871033,-2.3758024187,6.6697384036\C,-1.2390200871,0.4572
 4004,0.6563616222\C,3.3503500638,0.9556847254,-1.6236318057\H,-5.97567
 95251,-4.5333603972,2.2532969575\H,-1.8324003034,-2.08153063,7.5129407
 33\C,5.811689147,5.9612179272,-1.5914720331\H,1.579992925,3.5449307586
 ,-5.1004283698\H,5.2589293573,7.9128262817,-3.7532502254\C,1.113562062
 2,-2.4039871127,0.2115762681\C,-0.5456118043,1.5377218821,-0.059108044
 7\H,0.1744143182,-3.639954756,7.0781312983\H,6.0112638691,5.9012607401
 ,-0.5104537747\H,6.1387815485,5.0167896117,-2.0523830835\H,6.429212185
 8,6.7755358544,-2.0027684556\H,2.7562316744,7.6445711171,-1.360491789\
 H,4.3667614311,8.3777682682,-1.5810468809\H,-0.7544158957,4.8695342937
 ,-0.8695314162\O,0.8087913427,5.6475107882,-2.6834722197\C,3.833176671
 4,7.4982862456,-1.1868150461\H,4.0023800398,7.4620493411,-0.0995782367
 \C,4.3152376895,7.1685672078,-5.5404225391\C,4.587953544,7.1607041626,
 -4.1754077979\H,-4.2095150482,-7.8964491759,1.7750256526\C,-2.50017116
 49,-2.8658145669,7.1243247963\H,3.5508699912,2.8369066001,-6.437943877
 5\O,-0.6457085764,-5.1716579127,2.8747276788\H,-3.6112244268,-4.895472
 7835,1.5767958311\H,0.9180074386,-4.392403233,1.062451094\H,-5.8522625
 751,-5.416414468,0.7102210023\C,-3.2932931557,-5.7417966947,6.28576666
 16\C,-3.850928081,-5.7231558658,3.5303829554\C,-0.5613090365,-3.052405
 1552,1.8147939116\C,0.7061877905,4.8679543608,-6.5250993301\H,-3.84630
 72593,-6.9795589667,0.2940011525\H,-2.5982734446,-7.1654148568,1.55255
 79422\C,4.014557068,6.2020232512,-3.3345333096\C,-2.6975546641,-4.7628
 847095,5.484187762\H,3.7726313822,5.3761032731,-1.3804703164\C,-3.0925
 877502,-2.5911024373,3.0741169899\H,-6.2687742406,-6.2916345158,2.2023
 904133\H,-2.8490362913,-3.4644250927,7.980822074\O,1.9826605634,-2.795
 5764434,-0.7491498835\C,4.7273585245,-1.3803902885,-0.7437511583\C,5.8
 445661361,-1.4840047842,0.0796421252\C,7.0111316025,-2.0551510881,-0.4
 264536472\C,4.7581305047,-1.8240039601,-2.0648856512\C,5.9320510353,-2
 .3875467711,-2.5598990894\H,3.8664543707,-1.7485340079,-2.6901876607\H
 ,5.9594269277,-2.7455867758,-3.5912394684\H,7.9729646567,-2.9585446934
 ,-2.1377235574\C,7.0588577078,-2.5091250389,-1.7448610245\H,7.88849877
 13,-2.1453936928,0.2175075182\H,5.7824395165,-1.1330203843,1.111059416
 \C,2.8133164813,-3.8827859639,-0.5811758871\C,3.5697165813,-4.05204269
 56,0.5774171463\C,4.475518447,-5.1084082343,0.6431395026\C,2.942486427
 1,-4.7501975815,-1.6618075002\C,3.8566867183,-5.7997688762,-1.58522331
 16\H,2.3394592907,-4.5832856995,-2.5558819942\H,3.9671810998,-6.479155
 2458,-2.4330603279\H,5.3429663175,-6.8030061981,-0.3793387369\C,4.6257
 768216,-5.9817881472,-0.4354697025\H,5.0777872851,-5.2406275611,1.5444
 691014\H,3.4654028864,-3.35161147,1.408260433\C,-4.5625445748,1.857946
 2289,0.9405606936\C,-4.5929446189,2.3025689917,2.2613599109\C,-5.76695
 34837,2.8658302585,2.7564863643\C,-5.680180481,1.960293094,0.117594493
 5\C,-6.8468351584,2.5311699584,0.6237923246\H,-5.6183285528,1.60853745
 79,-0.9135763086\H,-7.7245507787,2.6204281196,-0.0198310694\H,-7.80838
 34613,3.435342825,2.3348071425\C,-6.8942030044,2.9861365668,1.94187137
 28\H,-5.7940601704,3.2246464884,3.7875642506\H,-3.7009303065,2.2280399
 989,2.886292771\C,-2.649233936,4.3605126157,0.7748386559\C,-2.77858689
 25,5.2287841925,1.8547563381\C,-3.693289701,6.2778650366,1.7774592165\
 C,-3.4059389784,4.5284328503,-0.3837496791\C,-4.3122467265,5.584319681
 ,-0.4501905927\H,-3.3014635609,3.8273364362,-1.214011825\H,-4.91475591
 17,5.7154950842,-1.351512295\H,-5.1802867667,7.2793768992,0.57102708\C
 ,-4.4626988707,6.4585445405,0.6277072676\H,-3.8039335683,6.9579185389,
 2.6247418819\H,-2.175307659,5.0629139332,2.748854564\\Version=ES64L-G1
 6RevA.03\State=1-A\HF=-3486.4539607\RMSD=5.250e-09\RMSF=1.559e-06\Dipo
 le=-0.0002909,-0.0007416,-0.0002779\Quadrupole=10.9878002,-11.5833179,
 0.5955177,-25.8605123,13.8307782,25.1040045\PG=C01 [X(C72H58N2O8)]\\@


 EVERYTHING'S GOT A MORAL, IF ONLY YOU CAN FIND IT.

                                    -- LEWIS CARROL, ALICE IN WONDERLAND
 Job cpu time:       5 days  0 hours 37 minutes  7.4 seconds.
 Elapsed time:       0 days  3 hours 11 minutes 18.4 seconds.
 File lengths (MBytes):  RWF=   2917 Int=      0 D2E=      0 Chk=    167 Scr=      1
 Normal termination of Gaussian 16 at Fri Feb  7 05:57:27 2020.
