 Entering Gaussian System, Link 0=g16
 Initial command:
 /opt/apps/chemistry/Gaussian/g16/l1.exe "/tmp/Gau-159264.inp" -scrdir="/tmp/"
 Entering Link 1 = /opt/apps/chemistry/Gaussian/g16/l1.exe PID=    159265.
  
 Copyright (c) 1988,1990,1992,1993,1995,1998,2003,2009,2016,
            Gaussian, Inc.  All Rights Reserved.
  
 This is part of the Gaussian(R) 16 program.  It is based on
 the Gaussian(R) 09 system (copyright 2009, Gaussian, Inc.),
 the Gaussian(R) 03 system (copyright 2003, Gaussian, Inc.),
 the Gaussian(R) 98 system (copyright 1998, Gaussian, Inc.),
 the Gaussian(R) 94 system (copyright 1995, Gaussian, Inc.),
 the Gaussian 92(TM) system (copyright 1992, Gaussian, Inc.),
 the Gaussian 90(TM) system (copyright 1990, Gaussian, Inc.),
 the Gaussian 88(TM) system (copyright 1988, Gaussian, Inc.),
 the Gaussian 86(TM) system (copyright 1986, Carnegie Mellon
 University), and the Gaussian 82(TM) system (copyright 1983,
 Carnegie Mellon University). Gaussian is a federally registered
 trademark of Gaussian, Inc.
  
 This software contains proprietary and confidential information,
 including trade secrets, belonging to Gaussian, Inc.
  
 This software is provided under written license and may be
 used, copied, transmitted, or stored only in accord with that
 written license.
  
 The following legend is applicable only to US Government
 contracts under FAR:
  
                    RESTRICTED RIGHTS LEGEND
  
 Use, reproduction and disclosure by the US Government is
 subject to restrictions as set forth in subparagraphs (a)
 and (c) of the Commercial Computer Software - Restricted
 Rights clause in FAR 52.227-19.
  
 Gaussian, Inc.
 340 Quinnipiac St., Bldg. 40, Wallingford CT 06492
  
  
 ---------------------------------------------------------------
 Warning -- This program may not be used in any manner that
 competes with the business of Gaussian, Inc. or will provide
 assistance to any competitor of Gaussian, Inc.  The licensee
 of this program is prohibited from giving any competitor of
 Gaussian, Inc. access to this program.  By using this program,
 the user acknowledges that Gaussian, Inc. is engaged in the
 business of creating and licensing software in the field of
 computational chemistry and represents and warrants to the
 licensee that it is not a competitor of Gaussian, Inc. and that
 it will not use this program in any manner prohibited above.
 ---------------------------------------------------------------
  

 Cite this work as:
 Gaussian 16, Revision A.03,
 M. J. Frisch, G. W. Trucks, H. B. Schlegel, G. E. Scuseria, 
 M. A. Robb, J. R. Cheeseman, G. Scalmani, V. Barone, 
 G. A. Petersson, H. Nakatsuji, X. Li, M. Caricato, A. V. Marenich, 
 J. Bloino, B. G. Janesko, R. Gomperts, B. Mennucci, H. P. Hratchian, 
 J. V. Ortiz, A. F. Izmaylov, J. L. Sonnenberg, D. Williams-Young, 
 F. Ding, F. Lipparini, F. Egidi, J. Goings, B. Peng, A. Petrone, 
 T. Henderson, D. Ranasinghe, V. G. Zakrzewski, J. Gao, N. Rega, 
 G. Zheng, W. Liang, M. Hada, M. Ehara, K. Toyota, R. Fukuda, 
 J. Hasegawa, M. Ishida, T. Nakajima, Y. Honda, O. Kitao, H. Nakai, 
 T. Vreven, K. Throssell, J. A. Montgomery, Jr., J. E. Peralta, 
 F. Ogliaro, M. J. Bearpark, J. J. Heyd, E. N. Brothers, K. N. Kudin, 
 V. N. Staroverov, T. A. Keith, R. Kobayashi, J. Normand, 
 K. Raghavachari, A. P. Rendell, J. C. Burant, S. S. Iyengar, 
 J. Tomasi, M. Cossi, J. M. Millam, M. Klene, C. Adamo, R. Cammi, 
 J. W. Ochterski, R. L. Martin, K. Morokuma, O. Farkas, 
 J. B. Foresman, and D. J. Fox, Gaussian, Inc., Wallingford CT, 2016.
 
 ******************************************
 Gaussian 16:  ES64L-G16RevA.03 25-Dec-2016
                 7-Feb-2020 
 ******************************************
 %mem=360GB
 %nprocshared=40
 Will use up to   40 processors via shared memory.
 %Chk=/users/psyche/volatile/gaussian/nanohybrid/chk/D14.chk
 ----------------------------------------------------------------------
 # wB97XD/Def2SVP Opt # SCRF=(SMD,Solvent=Water) # Integral=(Grid=Ultra
 FineGrid)
 ----------------------------------------------------------------------
 1/18=20,19=15,26=6,38=1/1,3;
 2/9=110,12=2,17=6,18=5,40=1/2;
 3/5=43,7=101,11=2,25=1,30=1,70=32201,71=1,72=1,74=-58,75=-5/1,2,3;
 4//1;
 5/5=2,38=5,53=1/2;
 6/7=2,8=2,9=2,10=2,28=1/1;
 7//1,2,3,16;
 1/18=20,19=15,26=6/3(2);
 2/9=110/2;
 99//99;
 2/9=110/2;
 3/5=43,7=101,11=2,25=1,30=1,70=32205,71=1,72=1,74=-58,75=-5/1,2,3;
 4/5=5,16=3,69=1/1;
 5/5=2,38=5,53=1/2;
 7//1,2,3,16;
 1/18=20,19=15,26=6/3(-5);
 2/9=110/2;
 6/7=2,8=2,9=2,10=2,19=2,28=1/1;
 99/9=1/99;
 -------------------------------
 Geometry optimisation, Mol: D14
 -------------------------------
 Symbolic Z-matrix:
 Charge =  0 Multiplicity = 1
 H                    -2.15797  -14.4974   12.4567 
 C                     3.3804    7.14542  -14.0181 
 C                    -0.81396  -6.46649   8.83156 
 H                     0.95346  -3.8253    5.40636 
 H                    -0.06076   0.54229  -1.08746 
 C                     0.70692   4.34904  -1.87256 
 C                    -0.6808    0.38229   3.36905 
 H                     3.56514   6.99932  -11.0991 
 H                    -1.3534   -1.72716  -0.41811 
 H                    -2.08211   5.03587  -5.96244 
 N                     1.45774   4.88049  -0.92283 
 C                    -1.11564   5.20635  -6.43765 
 C                     2.37929   9.51922  -15.2011 
 C                     0.38707  -6.84036   9.47936 
 H                     3.87428   6.85136  -6.9381 
 H                    -1.58478   1.90178  -2.58982 
 C                     2.26759   7.84801  -13.374 
 H                     4.28094   7.43562  -8.54937 
 C                    -0.23158   1.1447   -0.1939 
 H                    -4.25341  -10.9226   9.06205 
 H                     1.27633  -6.21958   9.36736 
 C                    -0.90389  -10.0126   11.2124 
 C                    -0.63059   2.69354   2.1339 
 C                    -0.02904  -10.7706   12.0089 
 H                    -1.14038  -0.23723   6.68373 
 C                     0.07497   4.95024  -5.71671 
 C                    -1.08591   5.70428  -7.74282 
 C                     0.00665   4.38802  -4.32929 
 C                    -0.90598   0.63299   4.73392 
 C                    -0.58556  -2.01694   3.81026 
 C                    -0.33491   6.83247  -10.7677 
 C                    -1.91562  -3.08553   7.1311 
 C                     0.25534   7.28184  -11.9519 
 C                    -2.24354  -10.4275   11.0409 
 C                     1.07244  -1.60845   1.01489 
 H                     5.08601   9.76588  -16.9513 
 H                    -1.48185  -2.81135   0.96377 
 H                     1.00707  -10.4627   12.1506 
 H                     3.89248   4.37668  -7.85511 
 H                    -3.74494  -11.91     11.5234 
 C                    -1.96561  -7.27007   9.01178 
 C                    -0.68908  -8.77364   10.4521 
 C                    -0.84698  -5.25924   7.94499 
 C                    -3.52141  -10.1479   8.82805 
 C                    -0.36068   0.52492   1.05039 
 C                    -0.48638   3.31207   0.88822 
 C                    -0.3145   -0.98284   1.38479 
 S                     5.26922   5.51051  -14.7285 
 C                    -0.97814  -0.44123   5.62593 
 C                     1.31977   5.20627  -6.34085 
 C                    -0.29225   2.55581  -0.29155 
 C                     3.43294   8.91628  -15.8504 
 C                    -1.46786  -1.76164   0.66651 
 C                     1.80712   8.99432  -13.9921 
 H                    -4.69166  -8.01771   10.2615 
 H                     1.12731  -2.65584   1.31603 
 H                    -1.42079   6.78466  -10.685 
 C                    -0.8194    3.32198  -4.02599 
 C                     0.80872   4.93757  -3.23491 
 S                     2.4169    6.2961   -1.71656 
 H                    -3.86379  -8.27557   11.7946 
 C                    -0.52958  -0.94758   2.91448 
 C                     2.58292   6.02412  -8.52861 
 H                     1.2523   -1.56465  -0.06038 
 C                    -0.56848   1.29183   2.21943 
 N                     4.96149   7.01635  -15.8241 
 H                     2.24998   4.99984  -5.81162 
 C                    -1.89548  -8.41456   9.80929 
 H                     3.50684   10.3641  -17.4599 
 H                     4.03712   8.74467  -17.9198 
 C                     3.96568   7.68747  -15.2705 
 C                     3.45186   7.16196  -7.89475 
 N                     1.62389   5.96631  -3.39412 
 H                    -1.02309   1.6525    5.10175 
 H                    -0.55104   4.3981    0.82977 
 C                    -0.18054   3.20942  -1.63591 
 H                    -2.89759  -7.01214   8.50868 
 C                     3.45938   4.75143  -8.78394 
 H                     0.17629  -12.5221   13.2415 
 H                     0.95212  -5.74851   6.88908 
 H                     4.28086   4.96839  -9.46825 
 H                    -3.39139  -13.6027   13.3304 
 H                    -2.7014   -10.6199   8.28609 
 N                    -2.90776  -4.36095   8.90862 
 H                     1.88681  -1.07832   1.50909 
 H                     0.98971   9.5591   -13.5434 
 C                    -2.32337  -13.637    13.113 
 H                    -0.79168   3.29979   3.02526 
 S                    -4.01925  -2.86308   8.63605 
 C                    -4.20316  -8.76909   10.8837 
 C                    -0.5029   -11.9342   12.6235 
 C                    -2.71024  -11.592    11.6588 
 C                    -0.8466   -2.92838   6.14419 
 C                    -1.83825  -12.3587   12.4609 
 H                    -0.38844   7.56575  -12.7851 
 H                     2.86659   3.94792  -9.22197 
 H                     1.39307  -8.2354    10.7838 
 C                     0.45669  -7.97707   10.2893 
 C                     0.13045  -3.90577   6.11707 
 C                     0.48755   6.4428   -9.69676 
 C                     0.13691  -5.03363   7.0008 
 C                    -3.00796  -9.44114   10.1278 
 C                    -0.81379  -1.7756    5.18627 
 H                    -0.47757  -3.03973   3.4462 
 N                    -2.91181  -2.22441   7.25006 
 C                    -1.92081  -4.268     8.03381 
 C                     4.04232   9.48086  -17.1122 
 C                     0.15524   5.94442  -8.35631 
 C                     1.89348   6.50029  -9.82839 
 H                    -4.95688  -9.50613   11.1659 
 H                    -1.79938  -13.8432   14.0468 
 C                    -0.90195   2.74187  -2.71857 
 C                     2.47991   6.94299  -11.0162 
 N                     3.88664   6.01835  -13.5485 
 H                     2.85716   8.05886  -7.71965 
 H                    -2.44082  -1.33494   0.91106 
 C                     1.66158   7.34469  -12.0994 
 H                    -1.42697   2.86992  -4.81023 
 H                     1.95305   10.4398  -15.6002 
 H                    -3.99929  -9.43654   8.15274 
 C                     1.35353   5.6935   -7.64955 
 H                    -2.01886   5.90144  -8.27134 
 

 GradGradGradGradGradGradGradGradGradGradGradGradGradGradGradGradGradGrad
 Berny optimization.
 Initialization pass.
                           ----------------------------
                           !    Initial Parameters    !
                           ! (Angstroms and Degrees)  !
 --------------------------                            --------------------------
 ! Name  Definition              Value          Derivative Info.                !
 --------------------------------------------------------------------------------
 ! R1    R(1,87)                 1.0947         estimate D2E/DX2                !
 ! R2    R(2,17)                 1.4652         estimate D2E/DX2                !
 ! R3    R(2,71)                 1.4849         estimate D2E/DX2                !
 ! R4    R(2,114)                1.3218         estimate D2E/DX2                !
 ! R5    R(3,14)                 1.4149         estimate D2E/DX2                !
 ! R6    R(3,41)                 1.4158         estimate D2E/DX2                !
 ! R7    R(3,43)                 1.4982         estimate D2E/DX2                !
 ! R8    R(4,99)                 1.0904         estimate D2E/DX2                !
 ! R9    R(5,19)                 1.0911         estimate D2E/DX2                !
 ! R10   R(6,11)                 1.3222         estimate D2E/DX2                !
 ! R11   R(6,59)                 1.4875         estimate D2E/DX2                !
 ! R12   R(6,76)                 1.4637         estimate D2E/DX2                !
 ! R13   R(7,29)                 1.4059         estimate D2E/DX2                !
 ! R14   R(7,62)                 1.4135         estimate D2E/DX2                !
 ! R15   R(7,65)                 1.4702         estimate D2E/DX2                !
 ! R16   R(8,113)                1.0898         estimate D2E/DX2                !
 ! R17   R(9,53)                 1.0912         estimate D2E/DX2                !
 ! R18   R(10,12)                1.0904         estimate D2E/DX2                !
 ! R19   R(11,60)                1.8852         estimate D2E/DX2                !
 ! R20   R(12,26)                1.4152         estimate D2E/DX2                !
 ! R21   R(12,27)                1.3972         estimate D2E/DX2                !
 ! R22   R(13,52)                1.3767         estimate D2E/DX2                !
 ! R23   R(13,54)                1.4369         estimate D2E/DX2                !
 ! R24   R(13,119)               1.0902         estimate D2E/DX2                !
 ! R25   R(14,21)                1.0903         estimate D2E/DX2                !
 ! R26   R(14,98)                1.3975         estimate D2E/DX2                !
 ! R27   R(15,72)                1.0909         estimate D2E/DX2                !
 ! R28   R(16,112)               1.0902         estimate D2E/DX2                !
 ! R29   R(17,54)                1.3813         estimate D2E/DX2                !
 ! R30   R(17,117)               1.4984         estimate D2E/DX2                !
 ! R31   R(18,72)                1.0912         estimate D2E/DX2                !
 ! R32   R(19,45)                1.3961         estimate D2E/DX2                !
 ! R33   R(19,51)                1.4158         estimate D2E/DX2                !
 ! R34   R(20,44)                1.0912         estimate D2E/DX2                !
 ! R35   R(22,24)                1.4051         estimate D2E/DX2                !
 ! R36   R(22,34)                1.4129         estimate D2E/DX2                !
 ! R37   R(22,42)                1.4694         estimate D2E/DX2                !
 ! R38   R(23,46)                1.3982         estimate D2E/DX2                !
 ! R39   R(23,65)                1.4057         estimate D2E/DX2                !
 ! R40   R(23,88)                1.09           estimate D2E/DX2                !
 ! R41   R(24,38)                1.0901         estimate D2E/DX2                !
 ! R42   R(24,91)                1.3987         estimate D2E/DX2                !
 ! R43   R(25,49)                1.0894         estimate D2E/DX2                !
 ! R44   R(26,28)                1.4986         estimate D2E/DX2                !
 ! R45   R(26,50)                1.4158         estimate D2E/DX2                !
 ! R46   R(27,108)               1.4052         estimate D2E/DX2                !
 ! R47   R(27,122)               1.0902         estimate D2E/DX2                !
 ! R48   R(28,58)                1.3823         estimate D2E/DX2                !
 ! R49   R(28,59)                1.4639         estimate D2E/DX2                !
 ! R50   R(29,49)                1.3982         estimate D2E/DX2                !
 ! R51   R(29,74)                1.0901         estimate D2E/DX2                !
 ! R52   R(30,62)                1.3961         estimate D2E/DX2                !
 ! R53   R(30,103)               1.4155         estimate D2E/DX2                !
 ! R54   R(30,104)               1.091          estimate D2E/DX2                !
 ! R55   R(31,33)                1.3974         estimate D2E/DX2                !
 ! R56   R(31,57)                1.0901         estimate D2E/DX2                !
 ! R57   R(31,100)               1.4054         estimate D2E/DX2                !
 ! R58   R(32,93)                1.4634         estimate D2E/DX2                !
 ! R59   R(32,105)               1.3221         estimate D2E/DX2                !
 ! R60   R(32,106)               1.4877         estimate D2E/DX2                !
 ! R61   R(33,95)                1.0905         estimate D2E/DX2                !
 ! R62   R(33,117)               1.4154         estimate D2E/DX2                !
 ! R63   R(34,92)                1.3985         estimate D2E/DX2                !
 ! R64   R(34,102)               1.5463         estimate D2E/DX2                !
 ! R65   R(35,47)                1.5658         estimate D2E/DX2                !
 ! R66   R(35,56)                1.0912         estimate D2E/DX2                !
 ! R67   R(35,64)                1.0911         estimate D2E/DX2                !
 ! R68   R(35,85)                1.0902         estimate D2E/DX2                !
 ! R69   R(36,107)               1.0938         estimate D2E/DX2                !
 ! R70   R(37,53)                1.0911         estimate D2E/DX2                !
 ! R71   R(39,78)                1.0912         estimate D2E/DX2                !
 ! R72   R(40,92)                1.0909         estimate D2E/DX2                !
 ! R73   R(41,68)                1.3967         estimate D2E/DX2                !
 ! R74   R(41,77)                1.0901         estimate D2E/DX2                !
 ! R75   R(42,68)                1.4133         estimate D2E/DX2                !
 ! R76   R(42,98)                1.4049         estimate D2E/DX2                !
 ! R77   R(43,101)               1.3822         estimate D2E/DX2                !
 ! R78   R(43,106)               1.4641         estimate D2E/DX2                !
 ! R79   R(44,83)                1.0904         estimate D2E/DX2                !
 ! R80   R(44,102)               1.566          estimate D2E/DX2                !
 ! R81   R(44,120)               1.0911         estimate D2E/DX2                !
 ! R82   R(45,47)                1.5451         estimate D2E/DX2                !
 ! R83   R(45,65)                1.4135         estimate D2E/DX2                !
 ! R84   R(46,51)                1.4147         estimate D2E/DX2                !
 ! R85   R(46,75)                1.0895         estimate D2E/DX2                !
 ! R86   R(47,53)                1.5661         estimate D2E/DX2                !
 ! R87   R(47,62)                1.5451         estimate D2E/DX2                !
 ! R88   R(48,66)                1.8875         estimate D2E/DX2                !
 ! R89   R(48,114)               1.8873         estimate D2E/DX2                !
 ! R90   R(49,103)               1.4145         estimate D2E/DX2                !
 ! R91   R(50,67)                1.0899         estimate D2E/DX2                !
 ! R92   R(50,121)               1.3969         estimate D2E/DX2                !
 ! R93   R(51,76)                1.499          estimate D2E/DX2                !
 ! R94   R(52,71)                1.4595         estimate D2E/DX2                !
 ! R95   R(52,107)               1.5107         estimate D2E/DX2                !
 ! R96   R(53,116)               1.0902         estimate D2E/DX2                !
 ! R97   R(54,86)                1.0902         estimate D2E/DX2                !
 ! R98   R(55,90)                1.091          estimate D2E/DX2                !
 ! R99   R(58,112)               1.4327         estimate D2E/DX2                !
 ! R100  R(58,118)               1.0902         estimate D2E/DX2                !
 ! R101  R(59,73)                1.3222         estimate D2E/DX2                !
 ! R102  R(60,73)                1.8846         estimate D2E/DX2                !
 ! R103  R(61,90)                1.0902         estimate D2E/DX2                !
 ! R104  R(63,72)                1.5657         estimate D2E/DX2                !
 ! R105  R(63,78)                1.5662         estimate D2E/DX2                !
 ! R106  R(63,109)               1.5464         estimate D2E/DX2                !
 ! R107  R(63,121)               1.5471         estimate D2E/DX2                !
 ! R108  R(66,71)                1.3223         estimate D2E/DX2                !
 ! R109  R(68,102)               1.5469         estimate D2E/DX2                !
 ! R110  R(69,107)               1.0898         estimate D2E/DX2                !
 ! R111  R(70,107)               1.0928         estimate D2E/DX2                !
 ! R112  R(72,115)               1.0903         estimate D2E/DX2                !
 ! R113  R(76,112)               1.3825         estimate D2E/DX2                !
 ! R114  R(78,81)                1.091          estimate D2E/DX2                !
 ! R115  R(78,96)                1.0904         estimate D2E/DX2                !
 ! R116  R(79,91)                1.0903         estimate D2E/DX2                !
 ! R117  R(80,101)               1.09           estimate D2E/DX2                !
 ! R118  R(82,87)                1.0905         estimate D2E/DX2                !
 ! R119  R(84,89)                1.885          estimate D2E/DX2                !
 ! R120  R(84,106)               1.3221         estimate D2E/DX2                !
 ! R121  R(87,94)                1.5148         estimate D2E/DX2                !
 ! R122  R(87,111)               1.0904         estimate D2E/DX2                !
 ! R123  R(89,105)               1.8855         estimate D2E/DX2                !
 ! R124  R(90,102)               1.5657         estimate D2E/DX2                !
 ! R125  R(90,110)               1.0913         estimate D2E/DX2                !
 ! R126  R(91,94)                1.4106         estimate D2E/DX2                !
 ! R127  R(92,94)                1.4112         estimate D2E/DX2                !
 ! R128  R(93,99)                1.3823         estimate D2E/DX2                !
 ! R129  R(93,103)               1.4992         estimate D2E/DX2                !
 ! R130  R(97,98)                1.09           estimate D2E/DX2                !
 ! R131  R(99,101)               1.4329         estimate D2E/DX2                !
 ! R132  R(100,108)              1.4682         estimate D2E/DX2                !
 ! R133  R(100,109)              1.4133         estimate D2E/DX2                !
 ! R134  R(108,121)              1.4136         estimate D2E/DX2                !
 ! R135  R(109,113)              1.3967         estimate D2E/DX2                !
 ! R136  R(113,117)              1.4158         estimate D2E/DX2                !
 ! A1    A(17,2,71)            119.6753         estimate D2E/DX2                !
 ! A2    A(17,2,114)           122.9279         estimate D2E/DX2                !
 ! A3    A(71,2,114)           117.3848         estimate D2E/DX2                !
 ! A4    A(14,3,41)            118.8305         estimate D2E/DX2                !
 ! A5    A(14,3,43)            120.1705         estimate D2E/DX2                !
 ! A6    A(41,3,43)            120.9811         estimate D2E/DX2                !
 ! A7    A(11,6,59)            117.3851         estimate D2E/DX2                !
 ! A8    A(11,6,76)            122.761          estimate D2E/DX2                !
 ! A9    A(59,6,76)            119.8429         estimate D2E/DX2                !
 ! A10   A(29,7,62)            119.8095         estimate D2E/DX2                !
 ! A11   A(29,7,65)            131.3812         estimate D2E/DX2                !
 ! A12   A(62,7,65)            108.8081         estimate D2E/DX2                !
 ! A13   A(6,11,60)            106.7575         estimate D2E/DX2                !
 ! A14   A(10,12,26)           119.6939         estimate D2E/DX2                !
 ! A15   A(10,12,27)           118.7948         estimate D2E/DX2                !
 ! A16   A(26,12,27)           121.4956         estimate D2E/DX2                !
 ! A17   A(52,13,54)           122.7937         estimate D2E/DX2                !
 ! A18   A(52,13,119)          119.7632         estimate D2E/DX2                !
 ! A19   A(54,13,119)          117.4406         estimate D2E/DX2                !
 ! A20   A(3,14,21)            119.6608         estimate D2E/DX2                !
 ! A21   A(3,14,98)            121.5052         estimate D2E/DX2                !
 ! A22   A(21,14,98)           118.8186         estimate D2E/DX2                !
 ! A23   A(2,17,54)            117.0262         estimate D2E/DX2                !
 ! A24   A(2,17,117)           121.3346         estimate D2E/DX2                !
 ! A25   A(54,17,117)          121.6389         estimate D2E/DX2                !
 ! A26   A(5,19,45)            119.9517         estimate D2E/DX2                !
 ! A27   A(5,19,51)            120.0342         estimate D2E/DX2                !
 ! A28   A(45,19,51)           119.9988         estimate D2E/DX2                !
 ! A29   A(24,22,34)           120.049          estimate D2E/DX2                !
 ! A30   A(24,22,42)           131.0815         estimate D2E/DX2                !
 ! A31   A(34,22,42)           108.8689         estimate D2E/DX2                !
 ! A32   A(46,23,65)           119.3905         estimate D2E/DX2                !
 ! A33   A(46,23,88)           119.8516         estimate D2E/DX2                !
 ! A34   A(65,23,88)           120.7578         estimate D2E/DX2                !
 ! A35   A(22,24,38)           120.8689         estimate D2E/DX2                !
 ! A36   A(22,24,91)           119.1406         estimate D2E/DX2                !
 ! A37   A(38,24,91)           119.9905         estimate D2E/DX2                !
 ! A38   A(12,26,28)           120.0771         estimate D2E/DX2                !
 ! A39   A(12,26,50)           118.8395         estimate D2E/DX2                !
 ! A40   A(28,26,50)           121.0684         estimate D2E/DX2                !
 ! A41   A(12,27,108)          119.1779         estimate D2E/DX2                !
 ! A42   A(12,27,122)          119.9386         estimate D2E/DX2                !
 ! A43   A(108,27,122)         120.8835         estimate D2E/DX2                !
 ! A44   A(26,28,58)           121.3137         estimate D2E/DX2                !
 ! A45   A(26,28,59)           121.7566         estimate D2E/DX2                !
 ! A46   A(58,28,59)           116.9297         estimate D2E/DX2                !
 ! A47   A(7,29,49)            119.3832         estimate D2E/DX2                !
 ! A48   A(7,29,74)            120.7676         estimate D2E/DX2                !
 ! A49   A(49,29,74)           119.8491         estimate D2E/DX2                !
 ! A50   A(62,30,103)          119.9727         estimate D2E/DX2                !
 ! A51   A(62,30,104)          119.9996         estimate D2E/DX2                !
 ! A52   A(103,30,104)         120.011          estimate D2E/DX2                !
 ! A53   A(33,31,57)           119.9452         estimate D2E/DX2                !
 ! A54   A(33,31,100)          119.1918         estimate D2E/DX2                !
 ! A55   A(57,31,100)          120.8627         estimate D2E/DX2                !
 ! A56   A(93,32,105)          122.7622         estimate D2E/DX2                !
 ! A57   A(93,32,106)          119.8103         estimate D2E/DX2                !
 ! A58   A(105,32,106)         117.417          estimate D2E/DX2                !
 ! A59   A(31,33,95)           118.8054         estimate D2E/DX2                !
 ! A60   A(31,33,117)          121.4851         estimate D2E/DX2                !
 ! A61   A(95,33,117)          119.6925         estimate D2E/DX2                !
 ! A62   A(22,34,92)           120.4859         estimate D2E/DX2                !
 ! A63   A(22,34,102)          110.6768         estimate D2E/DX2                !
 ! A64   A(92,34,102)          128.8372         estimate D2E/DX2                !
 ! A65   A(47,35,56)           111.2749         estimate D2E/DX2                !
 ! A66   A(47,35,64)           111.2711         estimate D2E/DX2                !
 ! A67   A(47,35,85)           111.1181         estimate D2E/DX2                !
 ! A68   A(56,35,64)           107.5905         estimate D2E/DX2                !
 ! A69   A(56,35,85)           107.7035         estimate D2E/DX2                !
 ! A70   A(64,35,85)           107.7034         estimate D2E/DX2                !
 ! A71   A(3,41,68)            119.7965         estimate D2E/DX2                !
 ! A72   A(3,41,77)            120.1598         estimate D2E/DX2                !
 ! A73   A(68,41,77)           120.0234         estimate D2E/DX2                !
 ! A74   A(22,42,68)           108.951          estimate D2E/DX2                !
 ! A75   A(22,42,98)           131.0893         estimate D2E/DX2                !
 ! A76   A(68,42,98)           119.9584         estimate D2E/DX2                !
 ! A77   A(3,43,101)           121.3379         estimate D2E/DX2                !
 ! A78   A(3,43,106)           121.7239         estimate D2E/DX2                !
 ! A79   A(101,43,106)         116.9379         estimate D2E/DX2                !
 ! A80   A(20,44,83)           107.6828         estimate D2E/DX2                !
 ! A81   A(20,44,102)          111.2452         estimate D2E/DX2                !
 ! A82   A(20,44,120)          107.5649         estimate D2E/DX2                !
 ! A83   A(83,44,102)          111.1808         estimate D2E/DX2                !
 ! A84   A(83,44,120)          107.6967         estimate D2E/DX2                !
 ! A85   A(102,44,120)         111.2879         estimate D2E/DX2                !
 ! A86   A(19,45,47)           128.5611         estimate D2E/DX2                !
 ! A87   A(19,45,65)           120.6542         estimate D2E/DX2                !
 ! A88   A(47,45,65)           110.7843         estimate D2E/DX2                !
 ! A89   A(23,46,51)           121.373          estimate D2E/DX2                !
 ! A90   A(23,46,75)           118.8568         estimate D2E/DX2                !
 ! A91   A(51,46,75)           119.7521         estimate D2E/DX2                !
 ! A92   A(35,47,45)           111.422          estimate D2E/DX2                !
 ! A93   A(35,47,53)           110.1992         estimate D2E/DX2                !
 ! A94   A(35,47,62)           111.4868         estimate D2E/DX2                !
 ! A95   A(45,47,53)           111.3456         estimate D2E/DX2                !
 ! A96   A(45,47,62)           100.8263         estimate D2E/DX2                !
 ! A97   A(53,47,62)           111.2779         estimate D2E/DX2                !
 ! A98   A(66,48,114)           91.6508         estimate D2E/DX2                !
 ! A99   A(25,49,29)           118.9            estimate D2E/DX2                !
 ! A100  A(25,49,103)          119.7183         estimate D2E/DX2                !
 ! A101  A(29,49,103)          121.3647         estimate D2E/DX2                !
 ! A102  A(26,50,67)           120.1354         estimate D2E/DX2                !
 ! A103  A(26,50,121)          119.8232         estimate D2E/DX2                !
 ! A104  A(67,50,121)          120.0227         estimate D2E/DX2                !
 ! A105  A(19,51,46)           118.7614         estimate D2E/DX2                !
 ! A106  A(19,51,76)           119.5545         estimate D2E/DX2                !
 ! A107  A(46,51,76)           121.6703         estimate D2E/DX2                !
 ! A108  A(13,52,71)           117.4331         estimate D2E/DX2                !
 ! A109  A(13,52,107)          122.6138         estimate D2E/DX2                !
 ! A110  A(71,52,107)          119.9526         estimate D2E/DX2                !
 ! A111  A(9,53,37)            107.6112         estimate D2E/DX2                !
 ! A112  A(9,53,47)            111.2795         estimate D2E/DX2                !
 ! A113  A(9,53,116)           107.7112         estimate D2E/DX2                !
 ! A114  A(37,53,47)           111.2792         estimate D2E/DX2                !
 ! A115  A(37,53,116)          107.6978         estimate D2E/DX2                !
 ! A116  A(47,53,116)          111.0839         estimate D2E/DX2                !
 ! A117  A(13,54,17)           123.1555         estimate D2E/DX2                !
 ! A118  A(13,54,86)           117.106          estimate D2E/DX2                !
 ! A119  A(17,54,86)           119.7156         estimate D2E/DX2                !
 ! A120  A(28,58,112)          123.1558         estimate D2E/DX2                !
 ! A121  A(28,58,118)          119.6686         estimate D2E/DX2                !
 ! A122  A(112,58,118)         117.1574         estimate D2E/DX2                !
 ! A123  A(6,59,28)            119.9107         estimate D2E/DX2                !
 ! A124  A(6,59,73)            117.4072         estimate D2E/DX2                !
 ! A125  A(28,59,73)           122.6747         estimate D2E/DX2                !
 ! A126  A(11,60,73)            91.6782         estimate D2E/DX2                !
 ! A127  A(7,62,30)            120.6641         estimate D2E/DX2                !
 ! A128  A(7,62,47)            110.7772         estimate D2E/DX2                !
 ! A129  A(30,62,47)           128.5586         estimate D2E/DX2                !
 ! A130  A(72,63,78)           110.2396         estimate D2E/DX2                !
 ! A131  A(72,63,109)          111.3409         estimate D2E/DX2                !
 ! A132  A(72,63,121)          111.4867         estimate D2E/DX2                !
 ! A133  A(78,63,109)          111.2639         estimate D2E/DX2                !
 ! A134  A(78,63,121)          111.3251         estimate D2E/DX2                !
 ! A135  A(109,63,121)         100.9005         estimate D2E/DX2                !
 ! A136  A(7,65,23)            131.3837         estimate D2E/DX2                !
 ! A137  A(7,65,45)            108.8012         estimate D2E/DX2                !
 ! A138  A(23,65,45)           119.8149         estimate D2E/DX2                !
 ! A139  A(48,66,71)           106.5397         estimate D2E/DX2                !
 ! A140  A(41,68,42)           120.713          estimate D2E/DX2                !
 ! A141  A(41,68,102)          128.7006         estimate D2E/DX2                !
 ! A142  A(42,68,102)          110.5859         estimate D2E/DX2                !
 ! A143  A(2,71,52)            119.9074         estimate D2E/DX2                !
 ! A144  A(2,71,66)            117.689          estimate D2E/DX2                !
 ! A145  A(52,71,66)           122.4025         estimate D2E/DX2                !
 ! A146  A(15,72,18)           107.6539         estimate D2E/DX2                !
 ! A147  A(15,72,63)           111.2844         estimate D2E/DX2                !
 ! A148  A(15,72,115)          107.7332         estimate D2E/DX2                !
 ! A149  A(18,72,63)           111.1641         estimate D2E/DX2                !
 ! A150  A(18,72,115)          107.7254         estimate D2E/DX2                !
 ! A151  A(63,72,115)          111.1072         estimate D2E/DX2                !
 ! A152  A(59,73,60)           106.7618         estimate D2E/DX2                !
 ! A153  A(6,76,51)            121.9842         estimate D2E/DX2                !
 ! A154  A(6,76,112)           116.943          estimate D2E/DX2                !
 ! A155  A(51,76,112)          121.0643         estimate D2E/DX2                !
 ! A156  A(39,78,63)           111.2477         estimate D2E/DX2                !
 ! A157  A(39,78,81)           107.6591         estimate D2E/DX2                !
 ! A158  A(39,78,96)           107.7371         estimate D2E/DX2                !
 ! A159  A(63,78,81)           111.2248         estimate D2E/DX2                !
 ! A160  A(63,78,96)           111.104          estimate D2E/DX2                !
 ! A161  A(81,78,96)           107.6943         estimate D2E/DX2                !
 ! A162  A(89,84,106)          106.7754         estimate D2E/DX2                !
 ! A163  A(1,87,82)            106.9914         estimate D2E/DX2                !
 ! A164  A(1,87,94)            110.9027         estimate D2E/DX2                !
 ! A165  A(1,87,111)           106.9881         estimate D2E/DX2                !
 ! A166  A(82,87,94)           111.8972         estimate D2E/DX2                !
 ! A167  A(82,87,111)          107.81           estimate D2E/DX2                !
 ! A168  A(94,87,111)          111.9828         estimate D2E/DX2                !
 ! A169  A(84,89,105)           91.6689         estimate D2E/DX2                !
 ! A170  A(55,90,61)           107.7053         estimate D2E/DX2                !
 ! A171  A(55,90,102)          111.227          estimate D2E/DX2                !
 ! A172  A(55,90,110)          107.6593         estimate D2E/DX2                !
 ! A173  A(61,90,102)          111.1042         estimate D2E/DX2                !
 ! A174  A(61,90,110)          107.7387         estimate D2E/DX2                !
 ! A175  A(102,90,110)         111.2332         estimate D2E/DX2                !
 ! A176  A(24,91,79)           119.1172         estimate D2E/DX2                !
 ! A177  A(24,91,94)           121.3608         estimate D2E/DX2                !
 ! A178  A(79,91,94)           119.5219         estimate D2E/DX2                !
 ! A179  A(34,92,40)           120.2934         estimate D2E/DX2                !
 ! A180  A(34,92,94)           119.823          estimate D2E/DX2                !
 ! A181  A(40,92,94)           119.8836         estimate D2E/DX2                !
 ! A182  A(32,93,99)           116.9787         estimate D2E/DX2                !
 ! A183  A(32,93,103)          121.9698         estimate D2E/DX2                !
 ! A184  A(99,93,103)          121.0445         estimate D2E/DX2                !
 ! A185  A(87,94,91)           120.4972         estimate D2E/DX2                !
 ! A186  A(87,94,92)           120.3484         estimate D2E/DX2                !
 ! A187  A(91,94,92)           119.1406         estimate D2E/DX2                !
 ! A188  A(14,98,42)           119.1906         estimate D2E/DX2                !
 ! A189  A(14,98,97)           119.9015         estimate D2E/DX2                !
 ! A190  A(42,98,97)           120.9079         estimate D2E/DX2                !
 ! A191  A(4,99,93)            119.6121         estimate D2E/DX2                !
 ! A192  A(4,99,101)           117.174          estimate D2E/DX2                !
 ! A193  A(93,99,101)          123.2071         estimate D2E/DX2                !
 ! A194  A(31,100,108)         131.0996         estimate D2E/DX2                !
 ! A195  A(31,100,109)         119.995          estimate D2E/DX2                !
 ! A196  A(108,100,109)        108.9054         estimate D2E/DX2                !
 ! A197  A(43,101,80)          119.6924         estimate D2E/DX2                !
 ! A198  A(43,101,99)          123.1336         estimate D2E/DX2                !
 ! A199  A(80,101,99)          117.1553         estimate D2E/DX2                !
 ! A200  A(34,102,44)          111.3646         estimate D2E/DX2                !
 ! A201  A(34,102,68)          100.917          estimate D2E/DX2                !
 ! A202  A(34,102,90)          111.474          estimate D2E/DX2                !
 ! A203  A(44,102,68)          111.3706         estimate D2E/DX2                !
 ! A204  A(44,102,90)          110.128          estimate D2E/DX2                !
 ! A205  A(68,102,90)          111.317          estimate D2E/DX2                !
 ! A206  A(30,103,49)          118.797          estimate D2E/DX2                !
 ! A207  A(30,103,93)          119.5739         estimate D2E/DX2                !
 ! A208  A(49,103,93)          121.6159         estimate D2E/DX2                !
 ! A209  A(32,105,89)          106.7419         estimate D2E/DX2                !
 ! A210  A(32,106,43)          119.9186         estimate D2E/DX2                !
 ! A211  A(32,106,84)          117.3862         estimate D2E/DX2                !
 ! A212  A(43,106,84)          122.6873         estimate D2E/DX2                !
 ! A213  A(36,107,52)          111.064          estimate D2E/DX2                !
 ! A214  A(36,107,69)          107.7328         estimate D2E/DX2                !
 ! A215  A(36,107,70)          106.7857         estimate D2E/DX2                !
 ! A216  A(52,107,69)          111.7868         estimate D2E/DX2                !
 ! A217  A(52,107,70)          111.3197         estimate D2E/DX2                !
 ! A218  A(69,107,70)          107.9298         estimate D2E/DX2                !
 ! A219  A(27,108,100)         131.036          estimate D2E/DX2                !
 ! A220  A(27,108,121)         120.0071         estimate D2E/DX2                !
 ! A221  A(100,108,121)        108.9567         estimate D2E/DX2                !
 ! A222  A(63,109,100)         110.6528         estimate D2E/DX2                !
 ! A223  A(63,109,113)         128.6969         estimate D2E/DX2                !
 ! A224  A(100,109,113)        120.6503         estimate D2E/DX2                !
 ! A225  A(16,112,58)          117.12           estimate D2E/DX2                !
 ! A226  A(16,112,76)          119.6669         estimate D2E/DX2                !
 ! A227  A(58,112,76)          123.2058         estimate D2E/DX2                !
 ! A228  A(8,113,109)          119.9444         estimate D2E/DX2                !
 ! A229  A(8,113,117)          120.1792         estimate D2E/DX2                !
 ! A230  A(109,113,117)        119.8624         estimate D2E/DX2                !
 ! A231  A(2,114,48)           106.7317         estimate D2E/DX2                !
 ! A232  A(17,117,33)          120.358          estimate D2E/DX2                !
 ! A233  A(17,117,113)         120.8217         estimate D2E/DX2                !
 ! A234  A(33,117,113)         118.8137         estimate D2E/DX2                !
 ! A235  A(50,121,63)          128.7622         estimate D2E/DX2                !
 ! A236  A(50,121,108)         120.6525         estimate D2E/DX2                !
 ! A237  A(63,121,108)         110.5843         estimate D2E/DX2                !
 ! D1    D(71,2,17,54)           0.6772         estimate D2E/DX2                !
 ! D2    D(71,2,17,117)       -179.1375         estimate D2E/DX2                !
 ! D3    D(114,2,17,54)       -178.0295         estimate D2E/DX2                !
 ! D4    D(114,2,17,117)         2.1557         estimate D2E/DX2                !
 ! D5    D(17,2,71,52)           0.1512         estimate D2E/DX2                !
 ! D6    D(17,2,71,66)        -179.4823         estimate D2E/DX2                !
 ! D7    D(114,2,71,52)        178.9288         estimate D2E/DX2                !
 ! D8    D(114,2,71,66)         -0.7047         estimate D2E/DX2                !
 ! D9    D(17,2,114,48)        179.3875         estimate D2E/DX2                !
 ! D10   D(71,2,114,48)          0.6529         estimate D2E/DX2                !
 ! D11   D(41,3,14,21)        -178.6841         estimate D2E/DX2                !
 ! D12   D(41,3,14,98)          -0.1316         estimate D2E/DX2                !
 ! D13   D(43,3,14,21)           2.8398         estimate D2E/DX2                !
 ! D14   D(43,3,14,98)        -178.6078         estimate D2E/DX2                !
 ! D15   D(14,3,41,68)          -0.5459         estimate D2E/DX2                !
 ! D16   D(14,3,41,77)        -178.9066         estimate D2E/DX2                !
 ! D17   D(43,3,41,68)         177.9175         estimate D2E/DX2                !
 ! D18   D(43,3,41,77)          -0.4433         estimate D2E/DX2                !
 ! D19   D(14,3,43,101)         46.3455         estimate D2E/DX2                !
 ! D20   D(14,3,43,106)       -133.8506         estimate D2E/DX2                !
 ! D21   D(41,3,43,101)       -132.0974         estimate D2E/DX2                !
 ! D22   D(41,3,43,106)         47.7065         estimate D2E/DX2                !
 ! D23   D(59,6,11,60)           0.8453         estimate D2E/DX2                !
 ! D24   D(76,6,11,60)         179.6315         estimate D2E/DX2                !
 ! D25   D(11,6,59,28)         179.7257         estimate D2E/DX2                !
 ! D26   D(11,6,59,73)          -1.2346         estimate D2E/DX2                !
 ! D27   D(76,6,59,28)           0.9025         estimate D2E/DX2                !
 ! D28   D(76,6,59,73)         179.9422         estimate D2E/DX2                !
 ! D29   D(11,6,76,51)          -0.438          estimate D2E/DX2                !
 ! D30   D(11,6,76,112)       -179.3893         estimate D2E/DX2                !
 ! D31   D(59,6,76,51)         178.3194         estimate D2E/DX2                !
 ! D32   D(59,6,76,112)         -0.6319         estimate D2E/DX2                !
 ! D33   D(62,7,29,49)          -0.0327         estimate D2E/DX2                !
 ! D34   D(62,7,29,74)         179.8925         estimate D2E/DX2                !
 ! D35   D(65,7,29,49)         179.5155         estimate D2E/DX2                !
 ! D36   D(65,7,29,74)          -0.5593         estimate D2E/DX2                !
 ! D37   D(29,7,62,30)          -0.7698         estimate D2E/DX2                !
 ! D38   D(29,7,62,47)         179.1289         estimate D2E/DX2                !
 ! D39   D(65,7,62,30)         179.5882         estimate D2E/DX2                !
 ! D40   D(65,7,62,47)          -0.5131         estimate D2E/DX2                !
 ! D41   D(29,7,65,23)           1.1576         estimate D2E/DX2                !
 ! D42   D(29,7,65,45)        -179.0207         estimate D2E/DX2                !
 ! D43   D(62,7,65,23)        -179.2565         estimate D2E/DX2                !
 ! D44   D(62,7,65,45)           0.5652         estimate D2E/DX2                !
 ! D45   D(6,11,60,73)          -0.3083         estimate D2E/DX2                !
 ! D46   D(10,12,26,28)          2.7935         estimate D2E/DX2                !
 ! D47   D(10,12,26,50)       -178.6012         estimate D2E/DX2                !
 ! D48   D(27,12,26,28)       -178.665          estimate D2E/DX2                !
 ! D49   D(27,12,26,50)         -0.0598         estimate D2E/DX2                !
 ! D50   D(10,12,27,108)       179.1284         estimate D2E/DX2                !
 ! D51   D(10,12,27,122)        -0.8594         estimate D2E/DX2                !
 ! D52   D(26,12,27,108)         0.5742         estimate D2E/DX2                !
 ! D53   D(26,12,27,122)      -179.4136         estimate D2E/DX2                !
 ! D54   D(54,13,52,71)          0.4824         estimate D2E/DX2                !
 ! D55   D(54,13,52,107)      -179.2365         estimate D2E/DX2                !
 ! D56   D(119,13,52,71)       179.8889         estimate D2E/DX2                !
 ! D57   D(119,13,52,107)        0.17           estimate D2E/DX2                !
 ! D58   D(52,13,54,17)          0.3964         estimate D2E/DX2                !
 ! D59   D(52,13,54,86)        178.6455         estimate D2E/DX2                !
 ! D60   D(119,13,54,17)      -179.0232         estimate D2E/DX2                !
 ! D61   D(119,13,54,86)        -0.7741         estimate D2E/DX2                !
 ! D62   D(3,14,98,42)           0.6701         estimate D2E/DX2                !
 ! D63   D(3,14,98,97)        -179.4022         estimate D2E/DX2                !
 ! D64   D(21,14,98,42)        179.2344         estimate D2E/DX2                !
 ! D65   D(21,14,98,97)         -0.8378         estimate D2E/DX2                !
 ! D66   D(2,17,54,13)          -0.9659         estimate D2E/DX2                !
 ! D67   D(2,17,54,86)        -179.1713         estimate D2E/DX2                !
 ! D68   D(117,17,54,13)       178.8483         estimate D2E/DX2                !
 ! D69   D(117,17,54,86)         0.6429         estimate D2E/DX2                !
 ! D70   D(2,17,117,33)       -134.4675         estimate D2E/DX2                !
 ! D71   D(2,17,117,113)        46.473          estimate D2E/DX2                !
 ! D72   D(54,17,117,33)        45.7264         estimate D2E/DX2                !
 ! D73   D(54,17,117,113)     -133.3331         estimate D2E/DX2                !
 ! D74   D(5,19,45,47)          -0.896          estimate D2E/DX2                !
 ! D75   D(5,19,45,65)         179.3435         estimate D2E/DX2                !
 ! D76   D(51,19,45,47)       -179.4747         estimate D2E/DX2                !
 ! D77   D(51,19,45,65)          0.7647         estimate D2E/DX2                !
 ! D78   D(5,19,51,46)        -178.664          estimate D2E/DX2                !
 ! D79   D(5,19,51,76)           2.6675         estimate D2E/DX2                !
 ! D80   D(45,19,51,46)         -0.0864         estimate D2E/DX2                !
 ! D81   D(45,19,51,76)       -178.7549         estimate D2E/DX2                !
 ! D82   D(34,22,24,38)       -179.9796         estimate D2E/DX2                !
 ! D83   D(34,22,24,91)          0.0448         estimate D2E/DX2                !
 ! D84   D(42,22,24,38)          0.3458         estimate D2E/DX2                !
 ! D85   D(42,22,24,91)       -179.6298         estimate D2E/DX2                !
 ! D86   D(24,22,34,92)         -0.0336         estimate D2E/DX2                !
 ! D87   D(24,22,34,102)      -179.9501         estimate D2E/DX2                !
 ! D88   D(42,22,34,92)        179.7072         estimate D2E/DX2                !
 ! D89   D(42,22,34,102)        -0.2093         estimate D2E/DX2                !
 ! D90   D(24,22,42,68)        179.8383         estimate D2E/DX2                !
 ! D91   D(24,22,42,98)          0.2506         estimate D2E/DX2                !
 ! D92   D(34,22,42,68)          0.136          estimate D2E/DX2                !
 ! D93   D(34,22,42,98)       -179.4518         estimate D2E/DX2                !
 ! D94   D(65,23,46,51)          0.6353         estimate D2E/DX2                !
 ! D95   D(65,23,46,75)        179.0841         estimate D2E/DX2                !
 ! D96   D(88,23,46,51)       -179.2247         estimate D2E/DX2                !
 ! D97   D(88,23,46,75)         -0.7759         estimate D2E/DX2                !
 ! D98   D(46,23,65,7)         179.8552         estimate D2E/DX2                !
 ! D99   D(46,23,65,45)          0.0497         estimate D2E/DX2                !
 ! D100  D(88,23,65,7)          -0.2862         estimate D2E/DX2                !
 ! D101  D(88,23,65,45)        179.9084         estimate D2E/DX2                !
 ! D102  D(22,24,91,79)       -179.9992         estimate D2E/DX2                !
 ! D103  D(22,24,91,94)         -0.0868         estimate D2E/DX2                !
 ! D104  D(38,24,91,79)          0.025          estimate D2E/DX2                !
 ! D105  D(38,24,91,94)        179.9374         estimate D2E/DX2                !
 ! D106  D(12,26,28,58)         46.1824         estimate D2E/DX2                !
 ! D107  D(12,26,28,59)       -133.8843         estimate D2E/DX2                !
 ! D108  D(50,26,28,58)       -132.3913         estimate D2E/DX2                !
 ! D109  D(50,26,28,59)         47.5421         estimate D2E/DX2                !
 ! D110  D(12,26,50,67)       -178.9051         estimate D2E/DX2                !
 ! D111  D(12,26,50,121)        -0.476          estimate D2E/DX2                !
 ! D112  D(28,26,50,67)         -0.3142         estimate D2E/DX2                !
 ! D113  D(28,26,50,121)       178.1149         estimate D2E/DX2                !
 ! D114  D(12,27,108,100)      179.2987         estimate D2E/DX2                !
 ! D115  D(12,27,108,121)       -0.5548         estimate D2E/DX2                !
 ! D116  D(122,27,108,100)      -0.7136         estimate D2E/DX2                !
 ! D117  D(122,27,108,121)     179.4328         estimate D2E/DX2                !
 ! D118  D(26,28,58,112)       179.1133         estimate D2E/DX2                !
 ! D119  D(26,28,58,118)         0.7105         estimate D2E/DX2                !
 ! D120  D(59,28,58,112)        -0.8231         estimate D2E/DX2                !
 ! D121  D(59,28,58,118)      -179.2259         estimate D2E/DX2                !
 ! D122  D(26,28,59,6)         179.8926         estimate D2E/DX2                !
 ! D123  D(26,28,59,73)          0.9055         estimate D2E/DX2                !
 ! D124  D(58,28,59,6)          -0.1712         estimate D2E/DX2                !
 ! D125  D(58,28,59,73)       -179.1584         estimate D2E/DX2                !
 ! D126  D(7,29,49,25)         179.2376         estimate D2E/DX2                !
 ! D127  D(7,29,49,103)          0.7427         estimate D2E/DX2                !
 ! D128  D(74,29,49,25)         -0.6883         estimate D2E/DX2                !
 ! D129  D(74,29,49,103)      -179.1831         estimate D2E/DX2                !
 ! D130  D(103,30,62,7)          0.8624         estimate D2E/DX2                !
 ! D131  D(103,30,62,47)      -179.0165         estimate D2E/DX2                !
 ! D132  D(104,30,62,7)        179.3808         estimate D2E/DX2                !
 ! D133  D(104,30,62,47)        -0.4981         estimate D2E/DX2                !
 ! D134  D(62,30,103,49)        -0.159          estimate D2E/DX2                !
 ! D135  D(62,30,103,93)      -178.8581         estimate D2E/DX2                !
 ! D136  D(104,30,103,49)     -178.6773         estimate D2E/DX2                !
 ! D137  D(104,30,103,93)        2.6236         estimate D2E/DX2                !
 ! D138  D(57,31,33,95)         -0.8773         estimate D2E/DX2                !
 ! D139  D(57,31,33,117)      -179.3736         estimate D2E/DX2                !
 ! D140  D(100,31,33,95)       178.921          estimate D2E/DX2                !
 ! D141  D(100,31,33,117)        0.4248         estimate D2E/DX2                !
 ! D142  D(33,31,100,108)      179.702          estimate D2E/DX2                !
 ! D143  D(33,31,100,109)       -0.394          estimate D2E/DX2                !
 ! D144  D(57,31,100,108)       -0.5015         estimate D2E/DX2                !
 ! D145  D(57,31,100,109)      179.4025         estimate D2E/DX2                !
 ! D146  D(105,32,93,99)      -179.5074         estimate D2E/DX2                !
 ! D147  D(105,32,93,103)       -0.4579         estimate D2E/DX2                !
 ! D148  D(106,32,93,99)        -0.7177         estimate D2E/DX2                !
 ! D149  D(106,32,93,103)      178.3319         estimate D2E/DX2                !
 ! D150  D(93,32,105,89)       179.6941         estimate D2E/DX2                !
 ! D151  D(106,32,105,89)        0.8771         estimate D2E/DX2                !
 ! D152  D(93,32,106,43)         0.8875         estimate D2E/DX2                !
 ! D153  D(93,32,106,84)       179.8928         estimate D2E/DX2                !
 ! D154  D(105,32,106,43)      179.741          estimate D2E/DX2                !
 ! D155  D(105,32,106,84)       -1.2537         estimate D2E/DX2                !
 ! D156  D(31,33,117,17)      -179.1791         estimate D2E/DX2                !
 ! D157  D(31,33,117,113)       -0.1009         estimate D2E/DX2                !
 ! D158  D(95,33,117,17)         2.3378         estimate D2E/DX2                !
 ! D159  D(95,33,117,113)     -178.584          estimate D2E/DX2                !
 ! D160  D(22,34,92,40)       -179.9361         estimate D2E/DX2                !
 ! D161  D(22,34,92,94)          0.0623         estimate D2E/DX2                !
 ! D162  D(102,34,92,40)        -0.0364         estimate D2E/DX2                !
 ! D163  D(102,34,92,94)       179.9621         estimate D2E/DX2                !
 ! D164  D(22,34,102,44)       118.4824         estimate D2E/DX2                !
 ! D165  D(22,34,102,68)         0.1914         estimate D2E/DX2                !
 ! D166  D(22,34,102,90)      -118.0847         estimate D2E/DX2                !
 ! D167  D(92,34,102,44)       -61.4253         estimate D2E/DX2                !
 ! D168  D(92,34,102,68)      -179.7163         estimate D2E/DX2                !
 ! D169  D(92,34,102,90)        62.0076         estimate D2E/DX2                !
 ! D170  D(56,35,47,45)        176.0075         estimate D2E/DX2                !
 ! D171  D(56,35,47,53)        -59.8693         estimate D2E/DX2                !
 ! D172  D(56,35,47,62)         64.2128         estimate D2E/DX2                !
 ! D173  D(64,35,47,45)        -64.0183         estimate D2E/DX2                !
 ! D174  D(64,35,47,53)         60.105          estimate D2E/DX2                !
 ! D175  D(64,35,47,62)       -175.813          estimate D2E/DX2                !
 ! D176  D(85,35,47,45)         55.9933         estimate D2E/DX2                !
 ! D177  D(85,35,47,53)       -179.8835         estimate D2E/DX2                !
 ! D178  D(85,35,47,62)        -55.8014         estimate D2E/DX2                !
 ! D179  D(3,41,68,42)           0.6826         estimate D2E/DX2                !
 ! D180  D(3,41,68,102)       -179.0433         estimate D2E/DX2                !
 ! D181  D(77,41,68,42)        179.0456         estimate D2E/DX2                !
 ! D182  D(77,41,68,102)        -0.6803         estimate D2E/DX2                !
 ! D183  D(22,42,68,41)       -179.7803         estimate D2E/DX2                !
 ! D184  D(22,42,68,102)        -0.0089         estimate D2E/DX2                !
 ! D185  D(98,42,68,41)         -0.139          estimate D2E/DX2                !
 ! D186  D(98,42,68,102)       179.6325         estimate D2E/DX2                !
 ! D187  D(22,42,98,14)        179.0166         estimate D2E/DX2                !
 ! D188  D(22,42,98,97)         -0.9104         estimate D2E/DX2                !
 ! D189  D(68,42,98,14)         -0.5334         estimate D2E/DX2                !
 ! D190  D(68,42,98,97)        179.5396         estimate D2E/DX2                !
 ! D191  D(3,43,101,80)          0.4523         estimate D2E/DX2                !
 ! D192  D(3,43,101,99)        178.8291         estimate D2E/DX2                !
 ! D193  D(106,43,101,80)     -179.3605         estimate D2E/DX2                !
 ! D194  D(106,43,101,99)       -0.9838         estimate D2E/DX2                !
 ! D195  D(3,43,106,32)       -179.848          estimate D2E/DX2                !
 ! D196  D(3,43,106,84)          1.2014         estimate D2E/DX2                !
 ! D197  D(101,43,106,32)       -0.0359         estimate D2E/DX2                !
 ! D198  D(101,43,106,84)     -178.9865         estimate D2E/DX2                !
 ! D199  D(20,44,102,34)        64.0455         estimate D2E/DX2                !
 ! D200  D(20,44,102,68)       175.8504         estimate D2E/DX2                !
 ! D201  D(20,44,102,90)       -60.1509         estimate D2E/DX2                !
 ! D202  D(83,44,102,34)       -55.9648         estimate D2E/DX2                !
 ! D203  D(83,44,102,68)        55.8401         estimate D2E/DX2                !
 ! D204  D(83,44,102,90)       179.8388         estimate D2E/DX2                !
 ! D205  D(120,44,102,34)     -176.0214         estimate D2E/DX2                !
 ! D206  D(120,44,102,68)      -64.2165         estimate D2E/DX2                !
 ! D207  D(120,44,102,90)       59.7822         estimate D2E/DX2                !
 ! D208  D(19,45,47,35)         61.9095         estimate D2E/DX2                !
 ! D209  D(19,45,47,53)        -61.564          estimate D2E/DX2                !
 ! D210  D(19,45,47,62)       -179.6902         estimate D2E/DX2                !
 ! D211  D(65,45,47,35)       -118.3107         estimate D2E/DX2                !
 ! D212  D(65,45,47,53)        118.2157         estimate D2E/DX2                !
 ! D213  D(65,45,47,62)          0.0896         estimate D2E/DX2                !
 ! D214  D(19,45,65,7)         179.404          estimate D2E/DX2                !
 ! D215  D(19,45,65,23)         -0.7502         estimate D2E/DX2                !
 ! D216  D(47,45,65,7)          -0.3958         estimate D2E/DX2                !
 ! D217  D(47,45,65,23)        179.4501         estimate D2E/DX2                !
 ! D218  D(23,46,51,19)         -0.6185         estimate D2E/DX2                !
 ! D219  D(23,46,51,76)        178.0206         estimate D2E/DX2                !
 ! D220  D(75,46,51,19)       -179.0536         estimate D2E/DX2                !
 ! D221  D(75,46,51,76)         -0.4145         estimate D2E/DX2                !
 ! D222  D(35,47,53,9)         -59.7613         estimate D2E/DX2                !
 ! D223  D(35,47,53,37)         60.2476         estimate D2E/DX2                !
 ! D224  D(35,47,53,116)      -179.7653         estimate D2E/DX2                !
 ! D225  D(45,47,53,9)          64.406          estimate D2E/DX2                !
 ! D226  D(45,47,53,37)       -175.585          estimate D2E/DX2                !
 ! D227  D(45,47,53,116)       -55.598          estimate D2E/DX2                !
 ! D228  D(62,47,53,9)         176.036          estimate D2E/DX2                !
 ! D229  D(62,47,53,37)        -63.955          estimate D2E/DX2                !
 ! D230  D(62,47,53,116)        56.032          estimate D2E/DX2                !
 ! D231  D(35,47,62,7)         118.6169         estimate D2E/DX2                !
 ! D232  D(35,47,62,30)        -61.4945         estimate D2E/DX2                !
 ! D233  D(45,47,62,7)           0.2638         estimate D2E/DX2                !
 ! D234  D(45,47,62,30)       -179.8477         estimate D2E/DX2                !
 ! D235  D(53,47,62,7)        -117.9117         estimate D2E/DX2                !
 ! D236  D(53,47,62,30)         61.9768         estimate D2E/DX2                !
 ! D237  D(114,48,66,71)         0.0359         estimate D2E/DX2                !
 ! D238  D(66,48,114,2)         -0.3941         estimate D2E/DX2                !
 ! D239  D(25,49,103,30)      -179.1314         estimate D2E/DX2                !
 ! D240  D(25,49,103,93)        -0.4601         estimate D2E/DX2                !
 ! D241  D(29,49,103,30)        -0.6487         estimate D2E/DX2                !
 ! D242  D(29,49,103,93)       178.0226         estimate D2E/DX2                !
 ! D243  D(26,50,121,63)      -179.1145         estimate D2E/DX2                !
 ! D244  D(26,50,121,108)        0.4954         estimate D2E/DX2                !
 ! D245  D(67,50,121,63)        -0.6836         estimate D2E/DX2                !
 ! D246  D(67,50,121,108)      178.9263         estimate D2E/DX2                !
 ! D247  D(19,51,76,6)        -132.6543         estimate D2E/DX2                !
 ! D248  D(19,51,76,112)        46.2543         estimate D2E/DX2                !
 ! D249  D(46,51,76,6)          48.7171         estimate D2E/DX2                !
 ! D250  D(46,51,76,112)      -132.3743         estimate D2E/DX2                !
 ! D251  D(13,52,71,2)          -0.7221         estimate D2E/DX2                !
 ! D252  D(13,52,71,66)        178.8935         estimate D2E/DX2                !
 ! D253  D(107,52,71,2)        179.0046         estimate D2E/DX2                !
 ! D254  D(107,52,71,66)        -1.3798         estimate D2E/DX2                !
 ! D255  D(13,52,107,36)       116.6904         estimate D2E/DX2                !
 ! D256  D(13,52,107,69)        -3.67           estimate D2E/DX2                !
 ! D257  D(13,52,107,70)      -124.4594         estimate D2E/DX2                !
 ! D258  D(71,52,107,36)       -63.0216         estimate D2E/DX2                !
 ! D259  D(71,52,107,69)       176.6179         estimate D2E/DX2                !
 ! D260  D(71,52,107,70)        55.8285         estimate D2E/DX2                !
 ! D261  D(28,58,112,16)      -179.8462         estimate D2E/DX2                !
 ! D262  D(28,58,112,76)         1.1423         estimate D2E/DX2                !
 ! D263  D(118,58,112,16)       -1.406          estimate D2E/DX2                !
 ! D264  D(118,58,112,76)      179.5826         estimate D2E/DX2                !
 ! D265  D(6,59,73,60)           0.8559         estimate D2E/DX2                !
 ! D266  D(28,59,73,60)        179.867          estimate D2E/DX2                !
 ! D267  D(11,60,73,59)         -0.3214         estimate D2E/DX2                !
 ! D268  D(78,63,72,15)        -60.4884         estimate D2E/DX2                !
 ! D269  D(78,63,72,18)         59.5003         estimate D2E/DX2                !
 ! D270  D(78,63,72,115)       179.4607         estimate D2E/DX2                !
 ! D271  D(109,63,72,15)       175.5219         estimate D2E/DX2                !
 ! D272  D(109,63,72,18)       -64.4893         estimate D2E/DX2                !
 ! D273  D(109,63,72,115)       55.471          estimate D2E/DX2                !
 ! D274  D(121,63,72,15)        63.6837         estimate D2E/DX2                !
 ! D275  D(121,63,72,18)      -176.3275         estimate D2E/DX2                !
 ! D276  D(121,63,72,115)      -56.3672         estimate D2E/DX2                !
 ! D277  D(72,63,78,39)         59.7409         estimate D2E/DX2                !
 ! D278  D(72,63,78,81)        -60.2707         estimate D2E/DX2                !
 ! D279  D(72,63,78,96)        179.7698         estimate D2E/DX2                !
 ! D280  D(109,63,78,39)      -176.225          estimate D2E/DX2                !
 ! D281  D(109,63,78,81)        63.7634         estimate D2E/DX2                !
 ! D282  D(109,63,78,96)       -56.1961         estimate D2E/DX2                !
 ! D283  D(121,63,78,39)       -64.5245         estimate D2E/DX2                !
 ! D284  D(121,63,78,81)       175.464          estimate D2E/DX2                !
 ! D285  D(121,63,78,96)        55.5045         estimate D2E/DX2                !
 ! D286  D(72,63,109,100)     -118.4793         estimate D2E/DX2                !
 ! D287  D(72,63,109,113)       61.5252         estimate D2E/DX2                !
 ! D288  D(78,63,109,100)      118.1131         estimate D2E/DX2                !
 ! D289  D(78,63,109,113)      -61.8825         estimate D2E/DX2                !
 ! D290  D(121,63,109,100)      -0.0732         estimate D2E/DX2                !
 ! D291  D(121,63,109,113)     179.9312         estimate D2E/DX2                !
 ! D292  D(72,63,121,50)       -61.9027         estimate D2E/DX2                !
 ! D293  D(72,63,121,108)      118.4557         estimate D2E/DX2                !
 ! D294  D(78,63,121,50)        61.6555         estimate D2E/DX2                !
 ! D295  D(78,63,121,108)     -117.986          estimate D2E/DX2                !
 ! D296  D(109,63,121,50)      179.7972         estimate D2E/DX2                !
 ! D297  D(109,63,121,108)       0.1557         estimate D2E/DX2                !
 ! D298  D(48,66,71,2)           0.3166         estimate D2E/DX2                !
 ! D299  D(48,66,71,52)       -179.3071         estimate D2E/DX2                !
 ! D300  D(41,68,102,34)       179.6417         estimate D2E/DX2                !
 ! D301  D(41,68,102,44)        61.3551         estimate D2E/DX2                !
 ! D302  D(41,68,102,90)       -61.9681         estimate D2E/DX2                !
 ! D303  D(42,68,102,34)        -0.1065         estimate D2E/DX2                !
 ! D304  D(42,68,102,44)      -118.3932         estimate D2E/DX2                !
 ! D305  D(42,68,102,90)       118.2836         estimate D2E/DX2                !
 ! D306  D(6,76,112,16)       -179.3333         estimate D2E/DX2                !
 ! D307  D(6,76,112,58)         -0.3459         estimate D2E/DX2                !
 ! D308  D(51,76,112,16)         1.7051         estimate D2E/DX2                !
 ! D309  D(51,76,112,58)      -179.3075         estimate D2E/DX2                !
 ! D310  D(106,84,89,105)       -0.3027         estimate D2E/DX2                !
 ! D311  D(89,84,106,32)         0.8503         estimate D2E/DX2                !
 ! D312  D(89,84,106,43)       179.8259         estimate D2E/DX2                !
 ! D313  D(1,87,94,91)         -88.6855         estimate D2E/DX2                !
 ! D314  D(1,87,94,92)          89.9535         estimate D2E/DX2                !
 ! D315  D(82,87,94,91)        151.9314         estimate D2E/DX2                !
 ! D316  D(82,87,94,92)        -29.4296         estimate D2E/DX2                !
 ! D317  D(111,87,94,91)        30.7504         estimate D2E/DX2                !
 ! D318  D(111,87,94,92)      -150.6107         estimate D2E/DX2                !
 ! D319  D(84,89,105,32)        -0.3366         estimate D2E/DX2                !
 ! D320  D(55,90,102,34)       175.5867         estimate D2E/DX2                !
 ! D321  D(55,90,102,44)       -60.2802         estimate D2E/DX2                !
 ! D322  D(55,90,102,68)        63.7495         estimate D2E/DX2                !
 ! D323  D(61,90,102,34)        55.6116         estimate D2E/DX2                !
 ! D324  D(61,90,102,44)       179.7447         estimate D2E/DX2                !
 ! D325  D(61,90,102,68)       -56.2256         estimate D2E/DX2                !
 ! D326  D(110,90,102,34)      -64.4098         estimate D2E/DX2                !
 ! D327  D(110,90,102,44)       59.7233         estimate D2E/DX2                !
 ! D328  D(110,90,102,68)     -176.247          estimate D2E/DX2                !
 ! D329  D(24,91,94,87)        178.7707         estimate D2E/DX2                !
 ! D330  D(24,91,94,92)          0.1154         estimate D2E/DX2                !
 ! D331  D(79,91,94,87)         -1.3173         estimate D2E/DX2                !
 ! D332  D(79,91,94,92)       -179.9726         estimate D2E/DX2                !
 ! D333  D(34,92,94,87)       -178.7591         estimate D2E/DX2                !
 ! D334  D(34,92,94,91)         -0.1017         estimate D2E/DX2                !
 ! D335  D(40,92,94,87)          1.2394         estimate D2E/DX2                !
 ! D336  D(40,92,94,91)        179.8967         estimate D2E/DX2                !
 ! D337  D(32,93,99,4)        -179.2984         estimate D2E/DX2                !
 ! D338  D(32,93,99,101)        -0.2776         estimate D2E/DX2                !
 ! D339  D(103,93,99,4)          1.6427         estimate D2E/DX2                !
 ! D340  D(103,93,99,101)     -179.3365         estimate D2E/DX2                !
 ! D341  D(32,93,103,30)      -132.0035         estimate D2E/DX2                !
 ! D342  D(32,93,103,49)        49.3352         estimate D2E/DX2                !
 ! D343  D(99,93,103,30)        47.0079         estimate D2E/DX2                !
 ! D344  D(99,93,103,49)      -131.6534         estimate D2E/DX2                !
 ! D345  D(4,99,101,43)       -179.7543         estimate D2E/DX2                !
 ! D346  D(4,99,101,80)         -1.3391         estimate D2E/DX2                !
 ! D347  D(93,99,101,43)         1.2026         estimate D2E/DX2                !
 ! D348  D(93,99,101,80)       179.6178         estimate D2E/DX2                !
 ! D349  D(31,100,108,27)        0.1789         estimate D2E/DX2                !
 ! D350  D(31,100,108,121)    -179.9552         estimate D2E/DX2                !
 ! D351  D(109,100,108,27)    -179.7332         estimate D2E/DX2                !
 ! D352  D(109,100,108,121)      0.1327         estimate D2E/DX2                !
 ! D353  D(31,100,109,63)     -179.9529         estimate D2E/DX2                !
 ! D354  D(31,100,109,113)       0.0431         estimate D2E/DX2                !
 ! D355  D(108,100,109,63)      -0.0294         estimate D2E/DX2                !
 ! D356  D(108,100,109,113)    179.9666         estimate D2E/DX2                !
 ! D357  D(27,108,121,50)        0.0246         estimate D2E/DX2                !
 ! D358  D(27,108,121,63)      179.6997         estimate D2E/DX2                !
 ! D359  D(100,108,121,50)    -179.8585         estimate D2E/DX2                !
 ! D360  D(100,108,121,63)      -0.1835         estimate D2E/DX2                !
 ! D361  D(63,109,113,8)        -1.0785         estimate D2E/DX2                !
 ! D362  D(63,109,113,117)    -179.7205         estimate D2E/DX2                !
 ! D363  D(100,109,113,8)      178.9263         estimate D2E/DX2                !
 ! D364  D(100,109,113,117)      0.2843         estimate D2E/DX2                !
 ! D365  D(8,113,117,17)         0.1799         estimate D2E/DX2                !
 ! D366  D(8,113,117,33)      -178.8939         estimate D2E/DX2                !
 ! D367  D(109,113,117,17)     178.8185         estimate D2E/DX2                !
 ! D368  D(109,113,117,33)      -0.2552         estimate D2E/DX2                !
 --------------------------------------------------------------------------------
 Trust Radius=3.00D-01 FncErr=5.00D-06 GrdErr=5.00D-06 EigMax=2.50D+02 EigMin=1.00D-04
 Number of steps in this run=    732 maximum allowed number of steps=    732.
 GradGradGradGradGradGradGradGradGradGradGradGradGradGradGradGradGradGrad

 Stoichiometry    C65H48N6S3
 Framework group  C1[X(C65H48N6S3)]
 Deg. of freedom   360
 Full point group                 C1      NOp   1
 Largest Abelian subgroup         C1      NOp   1
 Largest concise Abelian subgroup C1      NOp   1
                         Standard orientation:                         
 ---------------------------------------------------------------------
 Center     Atomic      Atomic             Coordinates (Angstroms)
 Number     Number       Type             X           Y           Z
 ---------------------------------------------------------------------
      1          1           0      -19.288782    4.831243    0.854858
      2          6           0       15.246916    2.264110    0.020810
      3          6           0      -11.615408    0.593842   -0.759855
      4          1           0       -7.065829    0.737826   -1.814477
      5          1           0        0.490393    0.079645    0.363697
      6          6           0        3.392194   -2.344745   -0.819086
      7          6           0       -3.313769   -2.189174   -0.443358
      8          1           0       12.828022    1.007073   -1.049164
      9          1           0       -1.538501    1.149290    1.781012
     10          1           0        6.641169   -1.810006    2.940668
     11          7           0        3.043006   -2.991035   -1.918419
     12          6           0        7.279434   -1.393276    2.160984
     13          6           0       17.378110    0.603102    0.878542
     14          6           0      -12.155646    0.974147   -2.011014
     15          1           0        9.421269   -0.818198   -2.628341
     16          1           0        2.225212   -0.780876    2.000113
     17          6           0       14.938830    1.012875    0.718189
     18          1           0       11.122332   -0.361267   -2.605480
     19          6           0        0.076839   -0.901526    0.125368
     20          1           0      -14.866936    2.928603    3.204530
     21          1           0      -11.571235    0.824076   -2.919110
     22          6           0      -15.554340    2.247985   -0.762287
     23          6           0       -1.004570   -3.425822   -0.534382
     24          6           0      -16.484154    2.756342   -1.684972
     25          1           0       -6.424415   -3.473170   -0.950664
     26          6           0        6.744414   -1.147212    0.874083
     27          6           0        8.622494   -1.142302    2.453368
     28          6           0        5.292241   -1.399672    0.603616
     29          6           0       -4.316069   -3.137022   -0.714290
     30          6           0       -5.005057   -0.442951   -0.219085
     31          6           0       11.831546   -0.313850    2.501931
     32          6           0       -8.514693   -1.656839    0.165413
     33          6           0       13.140331    0.102437    2.244159
     34          6           0      -15.866334    2.222518    0.615476
     35          6           0       -2.239330    1.152586   -0.950489
     36          1           0       19.375871    2.162287   -1.128512
     37          1           0       -3.289443    1.299892    1.666674
     38          1           0      -16.257502    2.782043   -2.750984
     39          1           0        8.776304    1.631366   -1.887439
     40          1           0      -17.335179    2.681311    2.137586
     41          6           0      -12.400568    0.770592    0.404967
     42          6           0      -14.206323    1.695628   -0.954569
     43          6           0      -10.223123    0.047014   -0.675768
     44          6           0      -14.122624    2.662512    2.452243
     45          6           0       -1.301530   -1.057373   -0.032356
     46          6           0        0.376673   -3.263282   -0.390018
     47          6           0       -2.412935    0.007384    0.103165
     48         16           0       15.210680    4.555723   -1.200843
     49          6           0       -5.655063   -2.734828   -0.727447
     50          6           0        7.596779   -0.633881   -0.133183
     51          6           0        0.939579   -2.009730   -0.053545
     52          6           0       17.736827    1.757061    0.218991
     53          6           0       -2.455917    0.605596    1.549882
     54          6           0       16.009687    0.241418    1.125896
     55          1           0      -14.277362   -0.145452    2.683261
     56          1           0       -3.063501    1.865923   -0.899363
     57          1           0       11.561100   -0.675831    3.493940
     58          6           0        4.312639   -0.964262    1.476299
     59          6           0        4.844274   -2.114710   -0.592644
     60         16           0        4.638448   -3.422543   -2.825232
     61          1           0      -15.530843   -0.417678    1.476226
     62          6           0       -3.668368   -0.844742   -0.188775
     63          6           0       10.035834    0.202347   -0.767574
     64          1           0       -1.313621    1.705848   -0.784865
     65          6           0       -1.851969   -2.318751   -0.354740
     66          7           0       16.895686    3.780291   -0.851482
     67          1           0        7.202806   -0.419795   -1.126632
     68          6           0      -13.679321    1.322995    0.302795
     69          1           0       19.867922    1.407583    0.387610
     70          1           0       19.416449    3.113373    0.346216
     71          6           0       16.662302    2.637678   -0.228200
     72          6           0       10.302915   -0.737653   -1.990922
     73          7           0        5.684306   -2.594568   -1.493890
     74          1           0       -4.060105   -4.177606   -0.914487
     75          1           0        1.024206   -4.130351   -0.516310
     76          6           0        2.415278   -1.837658    0.145702
     77          1           0      -11.999112    0.501601    1.382055
     78          6           0        9.669728    1.643038   -1.261023
     79          1           0      -18.435014    3.628245   -1.936267
     80          1           0       -9.349634    1.556462   -1.920616
     81          1           0       10.480101    2.077162   -1.848400
     82          1           0      -19.694618    3.272429    1.555259
     83          1           0      -13.815294    3.580831    1.951085
     84          7           0      -10.834346   -1.833066    0.764387
     85          1           0       -2.209581    0.752493   -1.964151
     86          1           0       15.830566   -0.704863    1.636707
     87          6           0      -19.364026    3.760863    0.638064
     88          1           0       -1.412606   -4.405778   -0.781780
     89         16           0       -9.951800   -3.273253    1.601222
     90          6           0      -15.124929    0.315304    2.173680
     91          6           0      -17.713770    3.233864   -1.219944
     92          6           0      -17.097969    2.701511    1.072981
     93          6           0       -7.452358   -0.943687   -0.544770
     94          6           0      -18.037679    3.213172    0.152814
     95          1           0       13.870893    0.070401    3.053188
[...]
 Alpha virt. eigenvalues --    1.44284   1.45142   1.45413   1.45522   1.46685
 Alpha virt. eigenvalues --    1.46872   1.47174   1.47738   1.47801   1.48513
 Alpha virt. eigenvalues --    1.48643   1.49098   1.49168   1.49305   1.49642
 Alpha virt. eigenvalues --    1.49771   1.50192   1.50320   1.50743   1.50862
 Alpha virt. eigenvalues --    1.51670   1.52313   1.52501   1.53390   1.54107
 Alpha virt. eigenvalues --    1.55404   1.56171   1.56868   1.58060   1.58110
 Alpha virt. eigenvalues --    1.59131   1.59227   1.59796   1.60404   1.60630
 Alpha virt. eigenvalues --    1.60733   1.61469   1.61760   1.62120   1.62352
 Alpha virt. eigenvalues --    1.62777   1.62889   1.63170   1.63292   1.63810
 Alpha virt. eigenvalues --    1.63873   1.63965   1.64184   1.64628   1.64916
 Alpha virt. eigenvalues --    1.65653   1.66326   1.67226   1.68316   1.69160
 Alpha virt. eigenvalues --    1.69845   1.70511   1.71115   1.71506   1.74354
 Alpha virt. eigenvalues --    1.74628   1.74670   1.74789   1.75094   1.75261
 Alpha virt. eigenvalues --    1.75989   1.76225   1.76254   1.76638   1.76826
 Alpha virt. eigenvalues --    1.76947   1.77453   1.77683   1.77796   1.77925
 Alpha virt. eigenvalues --    1.78028   1.78158   1.78412   1.78914   1.79406
 Alpha virt. eigenvalues --    1.79721   1.79787   1.80141   1.80356   1.80504
 Alpha virt. eigenvalues --    1.80594   1.81209   1.81894   1.82086   1.82190
 Alpha virt. eigenvalues --    1.82379   1.82569   1.82624   1.82879   1.83078
 Alpha virt. eigenvalues --    1.83340   1.83532   1.83739   1.83959   1.84067
 Alpha virt. eigenvalues --    1.84365   1.84668   1.85053   1.85540   1.85621
 Alpha virt. eigenvalues --    1.85718   1.85815   1.85974   1.86021   1.86074
 Alpha virt. eigenvalues --    1.86228   1.86436   1.86575   1.86768   1.87316
 Alpha virt. eigenvalues --    1.87512   1.87781   1.87890   1.88252   1.88312
 Alpha virt. eigenvalues --    1.88670   1.88876   1.89151   1.89798   1.90115
 Alpha virt. eigenvalues --    1.90272   1.90396   1.90811   1.90870   1.91075
 Alpha virt. eigenvalues --    1.91188   1.91354   1.91578   1.91860   1.92038
 Alpha virt. eigenvalues --    1.92415   1.92457   1.92755   1.92937   1.93039
 Alpha virt. eigenvalues --    1.93126   1.93305   1.93357   1.93454   1.93560
 Alpha virt. eigenvalues --    1.93734   1.94002   1.94246   1.94309   1.94585
 Alpha virt. eigenvalues --    1.94640   1.95079   1.95286   1.95490   1.95998
 Alpha virt. eigenvalues --    1.96421   1.96738   1.97292   1.97464   1.98004
 Alpha virt. eigenvalues --    1.98223   1.98556   1.98954   1.99200   1.99706
 Alpha virt. eigenvalues --    1.99800   2.00699   2.01024   2.01152   2.01239
 Alpha virt. eigenvalues --    2.01631   2.01687   2.02098   2.02852   2.03116
 Alpha virt. eigenvalues --    2.03192   2.03467   2.03732   2.04218   2.04814
 Alpha virt. eigenvalues --    2.04893   2.04915   2.04934   2.04958   2.05090
 Alpha virt. eigenvalues --    2.05272   2.05314   2.05684   2.06070   2.07578
 Alpha virt. eigenvalues --    2.07728   2.08089   2.08207   2.08554   2.08806
 Alpha virt. eigenvalues --    2.08839   2.09079   2.09660   2.10191   2.10470
 Alpha virt. eigenvalues --    2.10972   2.11189   2.11545   2.12322   2.12346
 Alpha virt. eigenvalues --    2.12822   2.13257   2.13424   2.13612   2.13973
 Alpha virt. eigenvalues --    2.14234   2.15455   2.15973   2.16095   2.16514
 Alpha virt. eigenvalues --    2.16614   2.16938   2.17395   2.17781   2.17952
 Alpha virt. eigenvalues --    2.18071   2.18508   2.18717   2.18782   2.19180
 Alpha virt. eigenvalues --    2.19348   2.19551   2.20117   2.20317   2.20454
 Alpha virt. eigenvalues --    2.21498   2.21809   2.22390   2.22898   2.23600
 Alpha virt. eigenvalues --    2.24329   2.24568   2.24691   2.24748   2.24849
 Alpha virt. eigenvalues --    2.24968   2.25233   2.25540   2.25763   2.26065
 Alpha virt. eigenvalues --    2.26152   2.26592   2.26804   2.27217   2.27713
 Alpha virt. eigenvalues --    2.28247   2.29150   2.29182   2.29411   2.29849
 Alpha virt. eigenvalues --    2.30161   2.30294   2.30574   2.30732   2.31409
 Alpha virt. eigenvalues --    2.31716   2.32270   2.32610   2.32719   2.32825
 Alpha virt. eigenvalues --    2.33237   2.33929   2.34454   2.35412   2.36496
 Alpha virt. eigenvalues --    2.37287   2.37515   2.37651   2.37850   2.38156
 Alpha virt. eigenvalues --    2.38593   2.38760   2.38940   2.39128   2.39347
 Alpha virt. eigenvalues --    2.39461   2.39539   2.39914   2.39950   2.40027
 Alpha virt. eigenvalues --    2.40280   2.41258   2.41397   2.41496   2.41874
 Alpha virt. eigenvalues --    2.42062   2.42177   2.42808   2.42990   2.43478
 Alpha virt. eigenvalues --    2.43703   2.44016   2.44063   2.44085   2.44215
 Alpha virt. eigenvalues --    2.44392   2.44563   2.44740   2.44969   2.45443
 Alpha virt. eigenvalues --    2.46124   2.47090   2.47490   2.48005   2.48880
 Alpha virt. eigenvalues --    2.49146   2.49587   2.50788   2.51262   2.51339
 Alpha virt. eigenvalues --    2.51350   2.51790   2.52509   2.52783   2.53513
 Alpha virt. eigenvalues --    2.54009   2.54598   2.55385   2.56198   2.56570
 Alpha virt. eigenvalues --    2.57705   2.58047   2.58325   2.58456   2.59096
 Alpha virt. eigenvalues --    2.59775   2.60316   2.60493   2.60551   2.60975
 Alpha virt. eigenvalues --    2.61564   2.61872   2.62114   2.62588   2.64137
 Alpha virt. eigenvalues --    2.64677   2.65073   2.65257   2.65511   2.65986
 Alpha virt. eigenvalues --    2.66085   2.66372   2.66577   2.67624   2.67733
 Alpha virt. eigenvalues --    2.68247   2.68796   2.69395   2.69615   2.69716
 Alpha virt. eigenvalues --    2.69902   2.70162   2.70274   2.70417   2.71032
 Alpha virt. eigenvalues --    2.71231   2.71673   2.71957   2.72200   2.72240
 Alpha virt. eigenvalues --    2.72477   2.72656   2.72702   2.72766   2.72960
 Alpha virt. eigenvalues --    2.73242   2.73532   2.73608   2.73761   2.73854
 Alpha virt. eigenvalues --    2.74024   2.74272   2.75071   2.75635   2.76986
 Alpha virt. eigenvalues --    2.77257   2.77654   2.77952   2.78206   2.78486
 Alpha virt. eigenvalues --    2.78768   2.78945   2.79074   2.79229   2.79624
 Alpha virt. eigenvalues --    2.79829   2.79988   2.80147   2.80448   2.80517
 Alpha virt. eigenvalues --    2.81127   2.81285   2.81837   2.81932   2.83304
 Alpha virt. eigenvalues --    2.84383   2.84939   2.85499   2.85575   2.88420
 Alpha virt. eigenvalues --    2.88489   2.88612   2.91031   2.92641   2.93997
 Alpha virt. eigenvalues --    2.94347   2.95020   2.95306   2.95640   2.95975
 Alpha virt. eigenvalues --    2.96012   2.96234   2.96273   2.96438   2.96739
 Alpha virt. eigenvalues --    2.96956   2.97010   2.97375   2.97558   2.98318
 Alpha virt. eigenvalues --    2.98976   2.99383   2.99707   3.00086   3.00494
 Alpha virt. eigenvalues --    3.00691   3.00703   3.00736   3.00755   3.01191
 Alpha virt. eigenvalues --    3.01858   3.02547   3.02640   3.02794   3.02869
 Alpha virt. eigenvalues --    3.04605   3.04698   3.04924   3.05128   3.05454
 Alpha virt. eigenvalues --    3.05589   3.10108   3.10146   3.10190   3.11005
 Alpha virt. eigenvalues --    3.11150   3.11832   3.12467   3.12747   3.13265
 Alpha virt. eigenvalues --    3.16248   3.17399   3.17866   3.18253   3.19038
 Alpha virt. eigenvalues --    3.19499   3.19701   3.21077   3.22210   3.22624
 Alpha virt. eigenvalues --    3.24396   3.24461   3.24512   3.25167   3.25852
 Alpha virt. eigenvalues --    3.26372   3.28591   3.30045   3.32068   3.37443
 Alpha virt. eigenvalues --    3.39791   3.42215   3.44168   3.45735   3.46862
 Alpha virt. eigenvalues --    3.52644   3.54875   3.57923   3.61707   3.64989
 Alpha virt. eigenvalues --    3.67609   3.74107   3.75289   3.76248
          Condensed to atoms (all electrons):
 Mulliken charges:
               1
     1  H    0.061922
     2  C    0.044324
     3  C    0.008730
     4  H    0.049126
     5  H    0.028476
     6  C    0.034303
     7  C    0.058722
     8  H    0.021664
     9  H    0.049220
    10  H    0.038617
    11  N   -0.329758
    12  C   -0.051470
    13  C   -0.093758
    14  C   -0.053009
    15  H    0.048764
    16  H    0.049230
    17  C    0.050997
    18  H    0.049279
    19  C   -0.099418
    20  H    0.048148
    21  H    0.037739
    22  C    0.047726
    23  C   -0.095910
    24  C   -0.092112
    25  H    0.032398
    26  C    0.009125
    27  C   -0.093853
    28  C    0.061516
    29  C   -0.095812
    30  C   -0.100014
    31  C   -0.093643
    32  C    0.034361
    33  C   -0.053060
    34  C    0.016013
    35  C    0.024931
    36  H    0.065304
    37  H    0.049704
    38  H    0.031196
    39  H    0.049270
    40  H    0.019048
    41  C   -0.080507
    42  C    0.057095
    43  C    0.063088
    44  C    0.024397
    45  C    0.006490
    46  C   -0.033030
    47  C   -0.202807
    48  S    0.495708
    49  C   -0.033168
    50  C   -0.079273
    51  C    0.009379
    52  C   -0.089376
    53  C    0.025204
    54  C   -0.065821
    55  H    0.047783
    56  H    0.049196
    57  H    0.035387
    58  C   -0.074059
    59  C    0.032818
    60  S    0.503938
    61  H    0.043321
    62  C    0.006657
    63  C   -0.203825
    64  H    0.049737
    65  C    0.058908
    66  N   -0.343682
    67  H    0.022272
    68  C    0.001937
    69  H    0.050129
    70  H    0.065410
    71  C    0.018769
    72  C    0.025322
    73  N   -0.331629
    74  H    0.035759
    75  H    0.032589
    76  C    0.056938
    77  H    0.020943
    78  C    0.025583
    79  H    0.030464
    80  H    0.048185
    81  H    0.048747
    82  H    0.060765
    83  H    0.043318
    84  N   -0.331825
    85  H    0.044559
    86  H    0.045967
    87  C    0.016147
    88  H    0.035797
    89  S    0.503637
    90  C    0.024654
    91  C   -0.063128
    92  C   -0.111854
    93  C    0.057374
    94  C   -0.105388
    95  H    0.037601
    96  H    0.044140
    97  H    0.034167
    98  C   -0.096648
    99  C   -0.072717
   100  C    0.056476
   101  C   -0.075545
   102  C   -0.203564
   103  C    0.009610
   104  H    0.028378
   105  N   -0.330125
   106  C    0.032086
   107  C    0.043616
   108  C    0.057538
   109  C    0.004425
   110  H    0.048148
   111  H    0.046905
   112  C   -0.072440
   113  C   -0.082020
   114  N   -0.334031
   115  H    0.044127
   116  H    0.044513
   117  C    0.011318
   118  H    0.048469
   119  H    0.044519
   120  H    0.048409
   121  C    0.003913
   122  H    0.035696
 Sum of Mulliken charges =  -0.00000
 Mulliken charges with hydrogens summed into heavy atoms:
               1
     2  C    0.044324
     3  C    0.008730
     6  C    0.034303
     7  C    0.058722
    11  N   -0.329758
    12  C   -0.012853
    13  C   -0.049238
    14  C   -0.015270
    17  C    0.050997
    19  C   -0.070942
    22  C    0.047726
    23  C   -0.060113
    24  C   -0.060916
    26  C    0.009125
    27  C   -0.058156
    28  C    0.061516
    29  C   -0.060053
    30  C   -0.071636
    31  C   -0.058256
    32  C    0.034361
    33  C   -0.015459
    34  C    0.016013
    35  C    0.168423
    41  C   -0.059564
    42  C    0.057095
    43  C    0.063088
    44  C    0.164272
    45  C    0.006490
    46  C   -0.000441
    47  C   -0.202807
    48  S    0.495708
    49  C   -0.000769
    50  C   -0.057001
    51  C    0.009379
    52  C   -0.089376
    53  C    0.168641
    54  C   -0.019854
    58  C   -0.025590
    59  C    0.032818
    60  S    0.503938
    62  C    0.006657
    63  C   -0.203825
    65  C    0.058908
    66  N   -0.343682
    68  C    0.001937
    71  C    0.018769
    72  C    0.167492
    73  N   -0.331629
    76  C    0.056938
    78  C    0.167741
    84  N   -0.331825
    87  C    0.185739
    89  S    0.503637
    90  C    0.163905
    91  C   -0.032664
    92  C   -0.092807
    93  C    0.057374
    94  C   -0.105388
    98  C   -0.062481
    99  C   -0.023591
   100  C    0.056476
   101  C   -0.027360
   102  C   -0.203564
   103  C    0.009610
   105  N   -0.330125
   106  C    0.032086
   107  C    0.224459
   108  C    0.057538
   109  C    0.004425
   112  C   -0.023210
   113  C   -0.060355
   114  N   -0.334031
   117  C    0.011318
   121  C    0.003913
 Electronic spatial extent (au):  <R**2>=         247069.0402
 Charge=              0.0000 electrons
 Dipole moment (field-independent basis, Debye):
    X=              0.5557    Y=              2.1570    Z=              2.9724  Tot=              3.7144
 Quadrupole moment (field-independent basis, Debye-Ang):
   XX=           -356.1133   YY=           -442.3720   ZZ=           -420.3042
   XY=            -45.5319   XZ=              8.2693   YZ=             -8.4879
 Traceless Quadrupole moment (field-independent basis, Debye-Ang):
   XX=             50.1499   YY=            -36.1088   ZZ=            -14.0411
   XY=            -45.5319   XZ=              8.2693   YZ=             -8.4879
 Octapole moment (field-independent basis, Debye-Ang**2):
  XXX=            351.6107  YYY=            -42.7801  ZZZ=             27.1042  XYY=           -123.5409
  XXY=            -84.6977  XXZ=            577.1830  XZZ=             22.3325  YZZ=              5.1256
  YYZ=            -52.0864  XYZ=             10.4198
 Hexadecapole moment (field-independent basis, Debye-Ang**3):
 XXXX=        -273818.6439 YYYY=          -9137.5100 ZZZZ=          -4408.1021 XXXY=         -12556.1128
 XXXZ=            499.7736 YYYX=            577.3405 YYYZ=             19.3803 ZZZX=              3.0853
 ZZZY=           -105.6526 XXYY=         -57564.7668 XXZZ=         -52581.8889 YYZZ=          -2230.3172
 XXYZ=          -1809.1551 YYXZ=            155.6095 ZZXY=           -405.8569
 N-N= 9.780047951475D+03 E-N=-2.895524544517D+04  KE= 3.992040166031D+03
 1\1\GINC-NODE009\FOpt\RwB97XD\def2SVP\C65H48N6S3\PSYCHE\07-Feb-2020\0\
 \# wB97XD/Def2SVP Opt # SCRF=(SMD,Solvent=Water) # Integral=(Grid=Ultr
 aFineGrid)\\Geometry optimisation, Mol: D14\\0,1\H,-3.081778947,-13.85
 95602151,13.0367940024\C,3.5232951939,7.6631503695,-13.7726034448\C,-0
 .7739525855,-6.5865402452,8.6734143614\H,0.8566976302,-4.1954691056,5.
 0185795699\H,-0.0633609695,0.2002429778,-1.3154590139\C,0.6568755292,4
 .0116964116,-2.1007627326\C,-0.6263897912,0.102978293,3.1322531854\H,3
 .5449473611,7.3369811595,-10.9138993035\H,-1.3588837755,-1.9864651319,
 -0.6089829808\H,-2.0412940238,4.4564766522,-6.2162012613\N,1.397427354
 4,4.6486638448,-1.1948295784\C,-1.0893939351,4.7745296977,-6.647368739
 9\C,2.2492617226,9.8104341956,-15.0109047916\C,0.4575005637,-7.0824452
 094,9.1364845335\H,3.6058488706,6.9962533869,-6.7943892815\H,-1.458969
 4926,1.4734334517,-2.8407692252\C,2.2828980568,8.1262947353,-13.207550
 0328\H,4.0210957377,7.7268564901,-8.3659420541\C,-0.2158004584,0.81168
 39146,-0.4221832933\H,-4.6410093446,-10.4512491051,9.7943948008\H,1.38
 15617491,-6.5859473523,8.8318557053\C,-0.917586175,-9.9416348506,11.27
 15731742\C,-0.5729497475,2.3902195967,1.8811604693\C,-0.0463005577,-10
 .7693915392,11.9756009147\H,-1.0084272105,-0.4942015036,6.4463110485\C
 ,0.0859261847,4.6493892585,-5.8856634622\C,-1.0666666601,5.3166923992,
 -7.931048212\C,0.0248119703,4.0496509625,-4.5310527281\C,-0.810411281,
 0.3705166452,4.4881934373\C,-0.5687916026,-2.2794433698,3.5700095392\C
 ,-0.3086290084,6.6823666095,-10.8472884258\C,-1.7411052555,-3.23641727
 59,6.9671705109\C,0.2939783275,7.2529731748,-11.9670447703\C,-2.306472
 2643,-10.148462669,11.3408144435\C,1.0273746703,-1.9036693544,0.791770
 996\H,5.0452921817,10.4470344386,-16.5511185152\H,-1.4810232232,-3.075
 0594568,0.7961583069\H,1.0344391707,-10.6155563369,11.927805402\H,3.98
 73258741,4.66894995,-7.7880269258\H,-3.9071263438,-11.3397402584,12.16
 55146296\C,-1.9636856505,-7.214325166,9.0835337834\C,-0.665977152,-8.7
 920528101,10.3915961027\C,-0.7994571285,-5.4319971649,7.7435078276\C,-
 3.8521463222,-9.809791655,9.3721949437\C,-0.3464668943,0.2144824109,0.
 8232863645\C,-0.4380740681,2.9872795863,0.6295813302\C,-0.3193507921,-
 1.2682865861,1.1667259533\S,5.5416281271,6.523766056,-14.3286472488\C,
 -0.8759870049,-0.6957903459,5.3825983593\C,1.308258042,5.0774760805,-6
 .4330132251\C,-0.2603396883,2.2126357474,-0.5307387921\C,3.4315546639,
 9.411791905,-15.5754607484\C,-1.4728431911,-2.0189839239,0.4855040422\
 C,1.6887864608,9.1821683287,-13.8541407098\H,-4.4655818146,-7.48315430
 95,10.7432348028\H,1.0561407146,-2.9580003856,1.1071963752\H,-1.385268
 2191,6.4983814326,-10.8347986059\C,-0.7339008667,2.9375535556,-4.25865
 90809\C,0.7444457694,4.6064103732,-3.4168929728\S,2.1130280575,5.89120
 78518,-1.9495663122\H,-3.4282412235,-7.7671455554,12.1671040169\C,-0.5
 061584417,-1.2198829792,2.6766747323\C,2.5352739037,6.1365945192,-8.48
 72770043\H,1.1782570943,-1.869891627,-0.2981774441\C,-0.5240158138,0.9
 99877265,1.973789169\N,5.2261810689,7.7490337236,-15.3442076122\H,2.23
 12354671,4.9751152625,-5.8594510266\C,-1.9029177058,-8.3075166646,9.93
 45508916\H,3.4182455224,10.8869957533,-17.1391763967\H,4.1591483599,9.
 3291724125,-17.5981804085\C,4.0843596433,8.3031170126,-14.9400758898\C
 ,3.1948458071,7.3193259765,-7.7633074908\N,1.5315215161,5.6808914447,-
 3.4472658266\H,-0.8977423809,1.3975184018,4.849857446\H,-0.4860274373,
 4.0738402712,0.5475533061\C,-0.155635353,2.8483596108,-1.866341629\H,-
 2.9276256144,-6.8503347517,8.7234862959\C,3.5629148833,5.0237748402,-8
 .7398418276\H,0.0960943321,-12.4593264354,13.3053176113\H,0.8299443303
 ,-6.1023847325,6.5456633751\H,4.3891441968,5.398185362,-9.3637201044\H
 ,-3.2289412982,-12.7604411058,14.416381194\H,-3.1976189366,-10.4336644
 139,8.7448334729\N,-2.695121324,-4.2609798813,8.8123383386\H,1.8633442
 841,-1.3747665485,1.273931739\H,0.7501044013,9.5813396046,-13.46302093
 85\C,-2.5245155387,-13.1444134895,13.6621490033\H,-0.7184467356,3.0064
 082685,2.7712249841\S,-3.5018777189,-2.8837948575,8.5329701562\C,-3.98
 57348857,-8.2611982991,11.3569550295\C,-0.5787160533,-11.8039075678,12
 .7482792521\C,-2.8260250214,-11.1790991656,12.1112644187\C,-0.78287038
 27,-3.1573433823,5.8976214946\C,-1.9618756379,-12.0240915331,12.828399
 8352\H,-0.3187198602,7.5057073877,-12.8353459081\H,3.1016252673,4.1673
 881811,-9.2545282668\H,1.4879075004,-8.546394122,10.3467963982\C,0.521
 4670633,-8.1807327394,9.9925472695\C,0.1004592069,-4.2053453593,5.8065
 443249\C,0.4886763347,6.344879532,-9.754848736\C,0.0926462003,-5.31278
 16998,6.7057318246\C,-3.0565815343,-9.1280329306,10.4947626959\C,-0.75
 48400913,-2.0253082801,4.9401750671\H,-0.4890962235,-3.3094177037,3.21
 24679037\N,-2.6950457985,-2.3458139133,7.2347454658\C,-1.7483394401,-4
 .3592673743,7.880133865\C,4.0412839201,10.0571472139,-16.7803938507\C,
 0.1519711428,5.7394131066,-8.4595026831\C,1.8734513636,6.5792303865,-9
 .7845365275\H,-4.778753138,-8.8774782965,11.8079347128\H,-1.7311098031
 ,-13.6961436804,14.1851488473\C,-0.8208978192,2.3516846562,-2.96069625
 94\C,2.4700365804,7.1469709664,-10.9004815704\N,4.2591590432,6.6395651
 588,-13.3420785871\H,2.469208142,8.1260055097,-7.5793638082\H,-2.44472
 87886,-1.5734042733,0.7461746231\C,1.6789783806,7.4922313826,-12.01035
 33779\H,-1.2940849186,2.4648543101,-5.0682927953\H,1.7061958885,10.650
 1256592,-15.4514489238\H,-4.3332024465,-9.0566448884,8.7291514581\C,1.
 3341644957,5.6160974992,-7.7106618807\H,-1.9912745138,5.413249955,-8.5
 044868913\\Version=ES64L-G16RevA.03\State=1-A\HF=-4025.6834948\RMSD=3.
 990e-09\RMSF=1.310e-06\Dipole=-0.6231578,-0.8613839,-1.0026377\Quadrup
 ole=-14.0767789,20.1366464,-6.0598675,-1.0729575,14.0631303,-42.595789
 2\PG=C01 [X(C65H48N6S3)]\\@


 WORK FAITHFULLY FOR EIGHT HOURS A DAY AND DON'T WORRY.
 IN TIME YOU MAY BECOME BOSS AND WORK TWELVE HOURS A DAY
 AND HAVE ALL THE WORRY.
 Job cpu time:       3 days 15 hours 56 minutes 32.2 seconds.
 Elapsed time:       0 days  2 hours 22 minutes 46.9 seconds.
 File lengths (MBytes):  RWF=   2506 Int=      0 D2E=      0 Chk=    136 Scr=      1
 Normal termination of Gaussian 16 at Fri Feb  7 19:05:56 2020.
