 Entering Gaussian System, Link 0=g16
 Initial command:
 /opt/apps/chemistry/Gaussian/g16/l1.exe "/tmp/Gau-34706.inp" -scrdir="/tmp/"
 Entering Link 1 = /opt/apps/chemistry/Gaussian/g16/l1.exe PID=     34707.
  
 Copyright (c) 1988,1990,1992,1993,1995,1998,2003,2009,2016,
            Gaussian, Inc.  All Rights Reserved.
  
 This is part of the Gaussian(R) 16 program.  It is based on
 the Gaussian(R) 09 system (copyright 2009, Gaussian, Inc.),
 the Gaussian(R) 03 system (copyright 2003, Gaussian, Inc.),
 the Gaussian(R) 98 system (copyright 1998, Gaussian, Inc.),
 the Gaussian(R) 94 system (copyright 1995, Gaussian, Inc.),
 the Gaussian 92(TM) system (copyright 1992, Gaussian, Inc.),
 the Gaussian 90(TM) system (copyright 1990, Gaussian, Inc.),
 the Gaussian 88(TM) system (copyright 1988, Gaussian, Inc.),
 the Gaussian 86(TM) system (copyright 1986, Carnegie Mellon
 University), and the Gaussian 82(TM) system (copyright 1983,
 Carnegie Mellon University). Gaussian is a federally registered
 trademark of Gaussian, Inc.
  
 This software contains proprietary and confidential information,
 including trade secrets, belonging to Gaussian, Inc.
  
 This software is provided under written license and may be
 used, copied, transmitted, or stored only in accord with that
 written license.
  
 The following legend is applicable only to US Government
 contracts under FAR:
  
                    RESTRICTED RIGHTS LEGEND
  
 Use, reproduction and disclosure by the US Government is
 subject to restrictions as set forth in subparagraphs (a)
 and (c) of the Commercial Computer Software - Restricted
 Rights clause in FAR 52.227-19.
  
 Gaussian, Inc.
 340 Quinnipiac St., Bldg. 40, Wallingford CT 06492
  
  
 ---------------------------------------------------------------
 Warning -- This program may not be used in any manner that
 competes with the business of Gaussian, Inc. or will provide
 assistance to any competitor of Gaussian, Inc.  The licensee
 of this program is prohibited from giving any competitor of
 Gaussian, Inc. access to this program.  By using this program,
 the user acknowledges that Gaussian, Inc. is engaged in the
 business of creating and licensing software in the field of
 computational chemistry and represents and warrants to the
 licensee that it is not a competitor of Gaussian, Inc. and that
 it will not use this program in any manner prohibited above.
 ---------------------------------------------------------------
  

 Cite this work as:
 Gaussian 16, Revision A.03,
 M. J. Frisch, G. W. Trucks, H. B. Schlegel, G. E. Scuseria, 
 M. A. Robb, J. R. Cheeseman, G. Scalmani, V. Barone, 
 G. A. Petersson, H. Nakatsuji, X. Li, M. Caricato, A. V. Marenich, 
 J. Bloino, B. G. Janesko, R. Gomperts, B. Mennucci, H. P. Hratchian, 
 J. V. Ortiz, A. F. Izmaylov, J. L. Sonnenberg, D. Williams-Young, 
 F. Ding, F. Lipparini, F. Egidi, J. Goings, B. Peng, A. Petrone, 
 T. Henderson, D. Ranasinghe, V. G. Zakrzewski, J. Gao, N. Rega, 
 G. Zheng, W. Liang, M. Hada, M. Ehara, K. Toyota, R. Fukuda, 
 J. Hasegawa, M. Ishida, T. Nakajima, Y. Honda, O. Kitao, H. Nakai, 
 T. Vreven, K. Throssell, J. A. Montgomery, Jr., J. E. Peralta, 
 F. Ogliaro, M. J. Bearpark, J. J. Heyd, E. N. Brothers, K. N. Kudin, 
 V. N. Staroverov, T. A. Keith, R. Kobayashi, J. Normand, 
 K. Raghavachari, A. P. Rendell, J. C. Burant, S. S. Iyengar, 
 J. Tomasi, M. Cossi, J. M. Millam, M. Klene, C. Adamo, R. Cammi, 
 J. W. Ochterski, R. L. Martin, K. Morokuma, O. Farkas, 
 J. B. Foresman, and D. J. Fox, Gaussian, Inc., Wallingford CT, 2016.
 
 ******************************************
 Gaussian 16:  ES64L-G16RevA.03 25-Dec-2016
                10-Feb-2020 
 ******************************************
 %mem=360GB
 %nprocshared=40
 Will use up to   40 processors via shared memory.
 %OldChk=/users/psyche/volatile/gaussian/nanohybrid/chk/D4.chk
 %Chk=/users/psyche/volatile/gaussian/nanohybrid/chk/D4_2.chk
 Copying data from "/users/psyche/volatile/gaussian/nanohybrid/chk/D4.chk" to current chk file "/users/psyche/volatile/gaussian/nanohybrid/chk/D4_2.chk"
 IOpt=  2 FromEx=T IUOpen= 4 IOptOp= 5 NList=   0 IFRang= 0 IUIn= 4 IUOut= 2.
 ----------------------------------------------------------------------
 # wB97XD/Def2SVP # Geom=Checkpoint Guess=Read # Opt=(recalc=5, maxcycl
 e=50) # SCRF=(SMD,Solvent=Water) # Integral=(Grid=UltraFineGrid)
 ----------------------------------------------------------------------
 1/6=50,10=4,18=20,19=15,26=6,29=2,38=1,71=5/1,3;
 2/9=110,12=2,40=1/2;
 3/5=43,7=101,11=2,14=-4,25=1,30=1,70=32201,71=2,72=1,74=-58,75=-5,116=-2,140=1/1,2,3;
 4/5=1/1;
 5/5=2,38=6,53=1/2;
 8/6=4,10=90,11=11/1;
 11/6=1,8=1,9=11,15=111,16=1/1,2,10;
 10/6=1/2;
 6/7=2,8=2,9=2,10=2,28=1/1;
 7/10=1,25=1/1,2,3,16;
 1/6=50,10=4,18=20,19=15,26=6,71=5/3(3);
 2/9=110/2;
 7/9=1,25=1,44=-1/16;
 99//99;
 2/9=110/2;
 3/5=43,7=101,11=2,14=-2,25=1,30=1,70=32205,71=2,72=1,74=-58,75=-5,140=1/1,2,3;
 4/5=5,16=3,69=1/1;
 5/5=2,38=5,53=1/2;
 8/6=4,10=90,11=11/1;
 11/6=1,8=1,9=11,15=111,16=1/1,2,10;
 10/6=1/2;
 7/10=1,25=1/1,2,3,16;
 1/6=50,18=20,19=15,26=6,71=5/3(-8);
 2/9=110/2;
 6/7=2,8=2,9=2,10=2,19=2,28=1/1;
 7/9=1,25=1,44=-1/16;
 99/9=1/99;
 ------------------------------
 Geometry optimisation, Mol: D4
 ------------------------------
 Structure from the checkpoint file:  "/users/psyche/volatile/gaussian/nanohybrid/chk/D4_2.chk"
 Charge =  0 Multiplicity = 1
 Redundant internal coordinates found in file.  (old form).
 S,0,-1.878275355,1.6903088738,-0.4252009142
 C,0,-5.7355006628,4.7335105469,1.5246876376
 C,0,8.9721792076,-7.5713156387,-2.661213333
 H,0,-4.1544708494,2.5398526137,-1.9445131193
 S,0,-4.5778770275,3.7503161427,2.3671548114
 C,0,-6.7648735452,5.5026004787,2.2089549771
 C,0,-8.7400898661,6.9955566127,2.6481328568
 S,0,3.9602094696,-3.2059638446,-2.1485187139
 C,0,-2.6816476988,2.3308067394,0.9756552525
 H,0,-3.0075026289,3.8934625251,-1.8384680681
 S,0,-7.9246972575,6.3866578799,1.2487084871
 C,0,1.876544094,-1.2195448395,-3.3337206813
 H,0,-0.6226938617,0.6718959557,3.9830916154
 C,0,-3.8143013367,3.239356547,0.8884353259
 C,0,-6.2262263406,5.0709489233,4.683741341
 C,0,0.2455902564,-0.0286286214,-0.1520293013
 S,0,1.3713463634,-1.0567954872,0.6799242349
 H,0,1.2555172221,-0.5943355901,-3.9888459998
 H,0,-9.6754633206,8.8237180809,1.9839600957
 H,0,-4.6952831272,4.1919951401,-2.3052621113
 H,0,-8.4911336529,6.7895870045,4.7853432313
 C,0,6.0992866117,-5.194169033,-3.2928770721
 H,0,-6.2618264823,3.9699521606,4.662143874
 C,0,-8.1388719986,6.5298628506,3.7851050463
 C,0,-2.0887004938,1.8402125779,2.1183042192
 C,0,-7.0120430064,5.6771001496,3.5579608935
 C,0,1.5043765323,-0.9956093359,-1.8977174682
 C,0,-4.434456091,3.8075127347,-0.2121000467
 H,0,-0.1295280272,0.4418324995,-2.2455979887
 H,0,-10.2885958151,8.169692537,3.5234129576
 H,0,-0.3123300895,-0.772890619,2.9992656415
 C,0,-9.9257364803,7.8969742345,2.5231088749
 H,0,-10.7502038455,7.4101596786,1.9794879696
 H,0,-6.6339836276,5.3968343433,5.6500617053
 C,0,3.2034418587,-2.5375299097,-0.7329509746
 C,0,5.057852668,-4.176458096,-1.2090280215
 H,0,-5.1661059326,5.3688401588,4.6509510588
 H,0,3.4854168569,-2.7769120061,1.4115449579
 H,0,5.1965873688,-4.3109220945,2.2470065299
 C,0,-0.2317993512,0.3254760687,3.0170854056
 C,0,7.8346498504,-6.5996163385,-2.6467542174
 S,0,7.2250133284,-5.9910913813,-1.1443131647
 H,0,2.9304385489,-0.9647495053,-3.5271871612
 H,0,5.5137059641,-5.7359262311,1.2344462284
 C,0,6.0052900652,-5.0250691185,-1.928848041
 H,0,1.7274802438,-2.2689304707,-3.6342564407
 C,0,-5.5172034366,4.6495217762,0.1670977633
 C,0,7.1341845698,-6.0849859856,-3.7110396319
 C,0,0.4553431057,-0.1164429606,-1.5118146398
 H,0,-6.1195537522,5.1848297045,-0.5695935072
 C,0,3.7916118731,-3.0511764499,0.3997178315
 H,0,0.8385570717,0.5813866113,2.9769545616
 C,0,-4.0502248505,3.5952525879,-1.6467296909
 C,0,7.4024944421,-6.4227548807,-5.1511141407
 C,0,2.1063023996,-1.5877680666,-0.8056273505
 C,0,5.5954925395,-4.6388670612,1.2775564466
 H,0,-2.4195172696,2.1022983185,3.125372776
 C,0,4.8441326238,-3.9808729111,0.1570232984
 C,0,-0.9968660639,0.9561965254,1.8911533599
 C,0,-0.7548860399,0.7734094142,0.5372386787
 H,0,6.6667960778,-4.3857317772,1.254147932
 H,0,7.1237260534,-7.4635696977,-5.3796625783
 H,0,6.8235958477,-5.7684971303,-5.8172549167
 H,0,8.467049129,-6.3064949447,-5.4043410437
 H,0,9.271909002,-7.7874571608,-3.6955014531
 H,0,9.8523781307,-7.1788130436,-2.1287593818
 H,0,8.6973377275,-8.5261435134,-2.185455182
 H,0,5.4393580813,-4.691815252,-4.0038875215
 Recover connectivity data from disk.

 GradGradGradGradGradGradGradGradGradGradGradGradGradGradGradGradGradGrad
 Berny optimization.
 Initialization pass.
                           ----------------------------
                           !    Initial Parameters    !
                           ! (Angstroms and Degrees)  !
 --------------------------                            --------------------------
 ! Name  Definition              Value          Derivative Info.                !
 --------------------------------------------------------------------------------
 ! R1    R(1,9)                  1.7373         calculate D2E/DX2 analytically  !
 ! R2    R(1,60)                 1.7404         calculate D2E/DX2 analytically  !
 ! R3    R(2,5)                  1.7368         calculate D2E/DX2 analytically  !
 ! R4    R(2,6)                  1.4558         calculate D2E/DX2 analytically  !
 ! R5    R(2,47)                 1.3776         calculate D2E/DX2 analytically  !
 ! R6    R(3,41)                 1.4961         calculate D2E/DX2 analytically  !
 ! R7    R(3,65)                 1.0983         calculate D2E/DX2 analytically  !
 ! R8    R(3,66)                 1.1011         calculate D2E/DX2 analytically  !
 ! R9    R(3,67)                 1.1016         calculate D2E/DX2 analytically  !
 ! R10   R(4,53)                 1.1015         calculate D2E/DX2 analytically  !
 ! R11   R(5,14)                 1.7409         calculate D2E/DX2 analytically  !
 ! R12   R(6,11)                 1.7461         calculate D2E/DX2 analytically  !
 ! R13   R(6,26)                 1.3825         calculate D2E/DX2 analytically  !
 ! R14   R(7,11)                 1.7303         calculate D2E/DX2 analytically  !
 ! R15   R(7,24)                 1.3679         calculate D2E/DX2 analytically  !
 ! R16   R(7,32)                 1.4946         calculate D2E/DX2 analytically  !
 ! R17   R(8,35)                 1.7388         calculate D2E/DX2 analytically  !
 ! R18   R(8,36)                 1.7405         calculate D2E/DX2 analytically  !
 ! R19   R(9,14)                 1.4546         calculate D2E/DX2 analytically  !
 ! R20   R(9,25)                 1.3776         calculate D2E/DX2 analytically  !
 ! R21   R(10,53)                1.1013         calculate D2E/DX2 analytically  !
 ! R22   R(12,18)                1.0981         calculate D2E/DX2 analytically  !
 ! R23   R(12,27)                1.5003         calculate D2E/DX2 analytically  !
 ! R24   R(12,43)                1.1014         calculate D2E/DX2 analytically  !
 ! R25   R(12,46)                1.1017         calculate D2E/DX2 analytically  !
 ! R26   R(13,40)                1.0982         calculate D2E/DX2 analytically  !
 ! R27   R(14,28)                1.3851         calculate D2E/DX2 analytically  !
 ! R28   R(15,23)                1.1018         calculate D2E/DX2 analytically  !
 ! R29   R(15,26)                1.5008         calculate D2E/DX2 analytically  !
 ! R30   R(15,34)                1.0983         calculate D2E/DX2 analytically  !
 ! R31   R(15,37)                1.1017         calculate D2E/DX2 analytically  !
 ! R32   R(16,17)                1.7368         calculate D2E/DX2 analytically  !
 ! R33   R(16,49)                1.3787         calculate D2E/DX2 analytically  !
 ! R34   R(16,60)                1.4558         calculate D2E/DX2 analytically  !
 ! R35   R(17,55)                1.7404         calculate D2E/DX2 analytically  !
 ! R36   R(19,32)                1.101          calculate D2E/DX2 analytically  !
 ! R37   R(20,53)                1.0981         calculate D2E/DX2 analytically  !
 ! R38   R(21,24)                1.0918         calculate D2E/DX2 analytically  !
 ! R39   R(22,45)                1.3777         calculate D2E/DX2 analytically  !
 ! R40   R(22,48)                1.4281         calculate D2E/DX2 analytically  !
 ! R41   R(22,68)                1.0924         calculate D2E/DX2 analytically  !
 ! R42   R(24,26)                1.4313         calculate D2E/DX2 analytically  !
 ! R43   R(25,57)                1.0919         calculate D2E/DX2 analytically  !
 ! R44   R(25,59)                1.4231         calculate D2E/DX2 analytically  !
 ! R45   R(27,49)                1.4221         calculate D2E/DX2 analytically  !
 ! R46   R(27,55)                1.3804         calculate D2E/DX2 analytically  !
 ! R47   R(28,47)                1.4231         calculate D2E/DX2 analytically  !
 ! R48   R(28,53)                1.5003         calculate D2E/DX2 analytically  !
 ! R49   R(29,49)                1.0919         calculate D2E/DX2 analytically  !
 ! R50   R(30,32)                1.0985         calculate D2E/DX2 analytically  !
 ! R51   R(31,40)                1.1015         calculate D2E/DX2 analytically  !
 ! R52   R(32,33)                1.101          calculate D2E/DX2 analytically  !
 ! R53   R(35,51)                1.3758         calculate D2E/DX2 analytically  !
 ! R54   R(35,55)                1.4529         calculate D2E/DX2 analytically  !
 ! R55   R(36,45)                1.4615         calculate D2E/DX2 analytically  !
 ! R56   R(36,58)                1.3964         calculate D2E/DX2 analytically  !
 ! R57   R(38,51)                1.0921         calculate D2E/DX2 analytically  !
 ! R58   R(39,56)                1.0984         calculate D2E/DX2 analytically  !
 ! R59   R(40,52)                1.1013         calculate D2E/DX2 analytically  !
 ! R60   R(40,59)                1.5003         calculate D2E/DX2 analytically  !
 ! R61   R(41,42)                1.7318         calculate D2E/DX2 analytically  !
 ! R62   R(41,48)                1.3741         calculate D2E/DX2 analytically  !
 ! R63   R(42,45)                1.7425         calculate D2E/DX2 analytically  !
 ! R64   R(44,56)                1.1009         calculate D2E/DX2 analytically  !
 ! R65   R(47,50)                1.0918         calculate D2E/DX2 analytically  !
 ! R66   R(48,54)                1.5033         calculate D2E/DX2 analytically  !
 ! R67   R(51,58)                1.4251         calculate D2E/DX2 analytically  !
 ! R68   R(54,62)                1.1015         calculate D2E/DX2 analytically  !
 ! R69   R(54,63)                1.0986         calculate D2E/DX2 analytically  !
 ! R70   R(54,64)                1.1004         calculate D2E/DX2 analytically  !
 ! R71   R(56,58)                1.501          calculate D2E/DX2 analytically  !
 ! R72   R(56,61)                1.1011         calculate D2E/DX2 analytically  !
 ! R73   R(59,60)                1.3875         calculate D2E/DX2 analytically  !
 ! A1    A(9,1,60)              92.683          calculate D2E/DX2 analytically  !
 ! A2    A(5,2,6)              122.8443         calculate D2E/DX2 analytically  !
 ! A3    A(5,2,47)             109.7484         calculate D2E/DX2 analytically  !
 ! A4    A(6,2,47)             127.4063         calculate D2E/DX2 analytically  !
 ! A5    A(41,3,65)            110.1454         calculate D2E/DX2 analytically  !
 ! A6    A(41,3,66)            111.815          calculate D2E/DX2 analytically  !
 ! A7    A(41,3,67)            111.6582         calculate D2E/DX2 analytically  !
 ! A8    A(65,3,66)            107.9018         calculate D2E/DX2 analytically  !
 ! A9    A(65,3,67)            107.7104         calculate D2E/DX2 analytically  !
 ! A10   A(66,3,67)            107.4321         calculate D2E/DX2 analytically  !
 ! A11   A(2,5,14)              92.664          calculate D2E/DX2 analytically  !
 ! A12   A(2,6,11)             118.5984         calculate D2E/DX2 analytically  !
 ! A13   A(2,6,26)             130.6724         calculate D2E/DX2 analytically  !
 ! A14   A(11,6,26)            110.7292         calculate D2E/DX2 analytically  !
 ! A15   A(11,7,24)            110.2014         calculate D2E/DX2 analytically  !
 ! A16   A(11,7,32)            121.2247         calculate D2E/DX2 analytically  !
 ! A17   A(24,7,32)            128.5739         calculate D2E/DX2 analytically  !
 ! A18   A(35,8,36)             92.8308         calculate D2E/DX2 analytically  !
 ! A19   A(1,9,14)             122.8202         calculate D2E/DX2 analytically  !
 ! A20   A(1,9,25)             109.7846         calculate D2E/DX2 analytically  !
 ! A21   A(14,9,25)            127.3937         calculate D2E/DX2 analytically  !
 ! A22   A(6,11,7)              92.6601         calculate D2E/DX2 analytically  !
 ! A23   A(18,12,27)           110.2294         calculate D2E/DX2 analytically  !
 ! A24   A(18,12,43)           107.7376         calculate D2E/DX2 analytically  !
 ! A25   A(18,12,46)           107.6414         calculate D2E/DX2 analytically  !
 ! A26   A(27,12,43)           111.7759         calculate D2E/DX2 analytically  !
 ! A27   A(27,12,46)           111.6984         calculate D2E/DX2 analytically  !
 ! A28   A(43,12,46)           107.5721         calculate D2E/DX2 analytically  !
 ! A29   A(5,14,9)             118.2885         calculate D2E/DX2 analytically  !
 ! A30   A(5,14,28)            110.9844         calculate D2E/DX2 analytically  !
 ! A31   A(9,14,28)            130.7271         calculate D2E/DX2 analytically  !
 ! A32   A(23,15,26)           111.8379         calculate D2E/DX2 analytically  !
 ! A33   A(23,15,34)           107.5633         calculate D2E/DX2 analytically  !
 ! A34   A(23,15,37)           107.5007         calculate D2E/DX2 analytically  !
 ! A35   A(26,15,34)           110.2281         calculate D2E/DX2 analytically  !
 ! A36   A(26,15,37)           111.8589         calculate D2E/DX2 analytically  !
 ! A37   A(34,15,37)           107.651          calculate D2E/DX2 analytically  !
 ! A38   A(17,16,49)           109.641          calculate D2E/DX2 analytically  !
 ! A39   A(17,16,60)           123.0104         calculate D2E/DX2 analytically  !
 ! A40   A(49,16,60)           127.3465         calculate D2E/DX2 analytically  !
 ! A41   A(16,17,55)            92.6053         calculate D2E/DX2 analytically  !
 ! A42   A(45,22,48)           114.5772         calculate D2E/DX2 analytically  !
 ! A43   A(45,22,68)           123.1439         calculate D2E/DX2 analytically  !
 ! A44   A(48,22,68)           122.2788         calculate D2E/DX2 analytically  !
 ! A45   A(7,24,21)            122.595          calculate D2E/DX2 analytically  !
 ! A46   A(7,24,26)            114.6436         calculate D2E/DX2 analytically  !
 ! A47   A(21,24,26)           122.7614         calculate D2E/DX2 analytically  !
 ! A48   A(9,25,57)            123.3044         calculate D2E/DX2 analytically  !
 ! A49   A(9,25,59)            114.7741         calculate D2E/DX2 analytically  !
 ! A50   A(57,25,59)           121.9214         calculate D2E/DX2 analytically  !
 ! A51   A(6,26,15)            125.9699         calculate D2E/DX2 analytically  !
 ! A52   A(6,26,24)            111.7655         calculate D2E/DX2 analytically  !
 ! A53   A(15,26,24)           122.2645         calculate D2E/DX2 analytically  !
 ! A54   A(12,27,49)           122.345          calculate D2E/DX2 analytically  !
 ! A55   A(12,27,55)           125.8056         calculate D2E/DX2 analytically  !
 ! A56   A(49,27,55)           111.8494         calculate D2E/DX2 analytically  !
 ! A57   A(14,28,47)           111.8166         calculate D2E/DX2 analytically  !
 ! A58   A(14,28,53)           125.9494         calculate D2E/DX2 analytically  !
 ! A59   A(47,28,53)           122.2339         calculate D2E/DX2 analytically  !
 ! A60   A(7,32,19)            111.6104         calculate D2E/DX2 analytically  !
 ! A61   A(7,32,30)            109.6089         calculate D2E/DX2 analytically  !
 ! A62   A(7,32,33)            111.6326         calculate D2E/DX2 analytically  !
 ! A63   A(19,32,30)           108.1824         calculate D2E/DX2 analytically  !
 ! A64   A(19,32,33)           107.4941         calculate D2E/DX2 analytically  !
 ! A65   A(30,32,33)           108.1815         calculate D2E/DX2 analytically  !
 ! A66   A(8,35,51)            109.9175         calculate D2E/DX2 analytically  !
 ! A67   A(8,35,55)            122.6306         calculate D2E/DX2 analytically  !
 ! A68   A(51,35,55)           127.4498         calculate D2E/DX2 analytically  !
 ! A69   A(8,36,45)            117.8232         calculate D2E/DX2 analytically  !
 ! A70   A(8,36,58)            110.6968         calculate D2E/DX2 analytically  !
 ! A71   A(45,36,58)           131.4798         calculate D2E/DX2 analytically  !
 ! A72   A(13,40,31)           107.6243         calculate D2E/DX2 analytically  !
 ! A73   A(13,40,52)           107.741          calculate D2E/DX2 analytically  !
 ! A74   A(13,40,59)           110.2445         calculate D2E/DX2 analytically  !
 ! A75   A(31,40,52)           107.5898         calculate D2E/DX2 analytically  !
 ! A76   A(31,40,59)           111.703          calculate D2E/DX2 analytically  !
 ! A77   A(52,40,59)           111.7525         calculate D2E/DX2 analytically  !
 ! A78   A(3,41,42)            120.2808         calculate D2E/DX2 analytically  !
 ! A79   A(3,41,48)            128.5599         calculate D2E/DX2 analytically  !
 ! A80   A(42,41,48)           111.1549         calculate D2E/DX2 analytically  !
 ! A81   A(41,42,45)            92.9008         calculate D2E/DX2 analytically  !
 ! A82   A(22,45,36)           127.0958         calculate D2E/DX2 analytically  !
 ! A83   A(22,45,42)           109.2665         calculate D2E/DX2 analytically  !
 ! A84   A(36,45,42)           123.6367         calculate D2E/DX2 analytically  !
 ! A85   A(2,47,28)            114.7865         calculate D2E/DX2 analytically  !
 ! A86   A(2,47,50)            123.2039         calculate D2E/DX2 analytically  !
 ! A87   A(28,47,50)           122.0094         calculate D2E/DX2 analytically  !
 ! A88   A(22,48,41)           112.1006         calculate D2E/DX2 analytically  !
 ! A89   A(22,48,54)           123.3667         calculate D2E/DX2 analytically  !
 ! A90   A(41,48,54)           124.5288         calculate D2E/DX2 analytically  !
 ! A91   A(16,49,27)           114.7876         calculate D2E/DX2 analytically  !
 ! A92   A(16,49,29)           123.2829         calculate D2E/DX2 analytically  !
 ! A93   A(27,49,29)           121.9293         calculate D2E/DX2 analytically  !
 ! A94   A(35,51,38)           123.308          calculate D2E/DX2 analytically  !
 ! A95   A(35,51,58)           114.7776         calculate D2E/DX2 analytically  !
 ! A96   A(38,51,58)           121.9144         calculate D2E/DX2 analytically  !
 ! A97   A(4,53,10)            107.5754         calculate D2E/DX2 analytically  !
 ! A98   A(4,53,20)            107.6348         calculate D2E/DX2 analytically  !
 ! A99   A(4,53,28)            111.7044         calculate D2E/DX2 analytically  !
 ! A100  A(10,53,20)           107.7346         calculate D2E/DX2 analytically  !
 ! A101  A(10,53,28)           111.7552         calculate D2E/DX2 analytically  !
 ! A102  A(20,53,28)           110.2503         calculate D2E/DX2 analytically  !
 ! A103  A(48,54,62)           111.4635         calculate D2E/DX2 analytically  !
 ! A104  A(48,54,63)           110.6707         calculate D2E/DX2 analytically  !
 ! A105  A(48,54,64)           111.6767         calculate D2E/DX2 analytically  !
 ! A106  A(62,54,63)           107.6719         calculate D2E/DX2 analytically  !
 ! A107  A(62,54,64)           107.2729         calculate D2E/DX2 analytically  !
 ! A108  A(63,54,64)           107.8976         calculate D2E/DX2 analytically  !
 ! A109  A(17,55,27)           111.1166         calculate D2E/DX2 analytically  !
 ! A110  A(17,55,35)           118.3994         calculate D2E/DX2 analytically  !
 ! A111  A(27,55,35)           130.4839         calculate D2E/DX2 analytically  !
 ! A112  A(39,56,44)           107.7636         calculate D2E/DX2 analytically  !
 ! A113  A(39,56,58)           110.255          calculate D2E/DX2 analytically  !
 ! A114  A(39,56,61)           107.6666         calculate D2E/DX2 analytically  !
 ! A115  A(44,56,58)           111.7401         calculate D2E/DX2 analytically  !
 ! A116  A(44,56,61)           107.49           calculate D2E/DX2 analytically  !
 ! A117  A(58,56,61)           111.7395         calculate D2E/DX2 analytically  !
 ! A118  A(36,58,51)           111.7766         calculate D2E/DX2 analytically  !
 ! A119  A(36,58,56)           126.3176         calculate D2E/DX2 analytically  !
 ! A120  A(51,58,56)           121.9057         calculate D2E/DX2 analytically  !
 ! A121  A(25,59,40)           122.1817         calculate D2E/DX2 analytically  !
 ! A122  A(25,59,60)           111.8023         calculate D2E/DX2 analytically  !
 ! A123  A(40,59,60)           126.016          calculate D2E/DX2 analytically  !
 ! A124  A(1,60,16)            118.1655         calculate D2E/DX2 analytically  !
 ! A125  A(1,60,59)            110.9558         calculate D2E/DX2 analytically  !
 ! A126  A(16,60,59)           130.8787         calculate D2E/DX2 analytically  !
 ! D1    D(60,1,9,14)         -179.6546         calculate D2E/DX2 analytically  !
 ! D2    D(60,1,9,25)           -0.0693         calculate D2E/DX2 analytically  !
 ! D3    D(9,1,60,16)         -179.8861         calculate D2E/DX2 analytically  !
 ! D4    D(9,1,60,59)            0.1151         calculate D2E/DX2 analytically  !
 ! D5    D(6,2,5,14)           179.6984         calculate D2E/DX2 analytically  !
 ! D6    D(47,2,5,14)            0.0387         calculate D2E/DX2 analytically  !
 ! D7    D(5,2,6,11)          -176.8007         calculate D2E/DX2 analytically  !
 ! D8    D(5,2,6,26)             3.278          calculate D2E/DX2 analytically  !
 ! D9    D(47,2,6,11)            2.7961         calculate D2E/DX2 analytically  !
 ! D10   D(47,2,6,26)         -177.1251         calculate D2E/DX2 analytically  !
 ! D11   D(5,2,47,28)            0.0161         calculate D2E/DX2 analytically  !
 ! D12   D(5,2,47,50)         -179.8158         calculate D2E/DX2 analytically  !
 ! D13   D(6,2,47,28)         -179.624          calculate D2E/DX2 analytically  !
 ! D14   D(6,2,47,50)            0.5441         calculate D2E/DX2 analytically  !
 ! D15   D(65,3,41,42)        -175.7569         calculate D2E/DX2 analytically  !
 ! D16   D(65,3,41,48)           5.0821         calculate D2E/DX2 analytically  !
 ! D17   D(66,3,41,42)         -55.7892         calculate D2E/DX2 analytically  !
 ! D18   D(66,3,41,48)         125.0499         calculate D2E/DX2 analytically  !
 ! D19   D(67,3,41,42)          64.6182         calculate D2E/DX2 analytically  !
 ! D20   D(67,3,41,48)        -114.5428         calculate D2E/DX2 analytically  !
 ! D21   D(2,5,14,9)           179.8745         calculate D2E/DX2 analytically  !
 ! D22   D(2,5,14,28)           -0.0847         calculate D2E/DX2 analytically  !
 ! D23   D(2,6,11,7)          -179.779          calculate D2E/DX2 analytically  !
 ! D24   D(26,6,11,7)            0.1572         calculate D2E/DX2 analytically  !
 ! D25   D(2,6,26,15)           -0.184          calculate D2E/DX2 analytically  !
 ! D26   D(2,6,26,24)          179.7804         calculate D2E/DX2 analytically  !
 ! D27   D(11,6,26,15)         179.8899         calculate D2E/DX2 analytically  !
 ! D28   D(11,6,26,24)          -0.1457         calculate D2E/DX2 analytically  !
 ! D29   D(24,7,11,6)           -0.1258         calculate D2E/DX2 analytically  !
 ! D30   D(32,7,11,6)          179.8968         calculate D2E/DX2 analytically  !
 ! D31   D(11,7,24,21)        -179.9863         calculate D2E/DX2 analytically  !
 ! D32   D(11,7,24,26)           0.0656         calculate D2E/DX2 analytically  !
 ! D33   D(32,7,24,21)          -0.011          calculate D2E/DX2 analytically  !
 ! D34   D(32,7,24,26)        -179.9591         calculate D2E/DX2 analytically  !
 ! D35   D(11,7,32,19)         -59.9694         calculate D2E/DX2 analytically  !
 ! D36   D(11,7,32,30)        -179.7992         calculate D2E/DX2 analytically  !
 ! D37   D(11,7,32,33)          60.3578         calculate D2E/DX2 analytically  !
 ! D38   D(24,7,32,19)         120.0577         calculate D2E/DX2 analytically  !
 ! D39   D(24,7,32,30)           0.2279         calculate D2E/DX2 analytically  !
 ! D40   D(24,7,32,33)        -119.6151         calculate D2E/DX2 analytically  !
 ! D41   D(36,8,35,51)           0.2189         calculate D2E/DX2 analytically  !
 ! D42   D(36,8,35,55)        -179.2981         calculate D2E/DX2 analytically  !
 ! D43   D(35,8,36,45)         179.6207         calculate D2E/DX2 analytically  !
 ! D44   D(35,8,36,58)          -0.2342         calculate D2E/DX2 analytically  !
 ! D45   D(1,9,14,5)           177.1585         calculate D2E/DX2 analytically  !
 ! D46   D(1,9,14,28)           -2.8918         calculate D2E/DX2 analytically  !
 ! D47   D(25,9,14,5)           -2.3505         calculate D2E/DX2 analytically  !
 ! D48   D(25,9,14,28)         177.5993         calculate D2E/DX2 analytically  !
 ! D49   D(1,9,25,57)          179.9089         calculate D2E/DX2 analytically  !
 ! D50   D(1,9,25,59)            0.0076         calculate D2E/DX2 analytically  !
 ! D51   D(14,9,25,57)          -0.5297         calculate D2E/DX2 analytically  !
 ! D52   D(14,9,25,59)         179.569          calculate D2E/DX2 analytically  !
 ! D53   D(18,12,27,49)          1.8887         calculate D2E/DX2 analytically  !
 ! D54   D(18,12,27,55)       -178.0632         calculate D2E/DX2 analytically  !
 ! D55   D(43,12,27,49)        121.6805         calculate D2E/DX2 analytically  !
 ! D56   D(43,12,27,55)        -58.2714         calculate D2E/DX2 analytically  !
 ! D57   D(46,12,27,49)       -117.7316         calculate D2E/DX2 analytically  !
 ! D58   D(46,12,27,55)         62.3165         calculate D2E/DX2 analytically  !
 ! D59   D(5,14,28,47)           0.107          calculate D2E/DX2 analytically  !
 ! D60   D(5,14,28,53)        -179.9594         calculate D2E/DX2 analytically  !
 ! D61   D(9,14,28,47)        -179.8457         calculate D2E/DX2 analytically  !
 ! D62   D(9,14,28,53)           0.0879         calculate D2E/DX2 analytically  !
 ! D63   D(23,15,26,6)         -61.5432         calculate D2E/DX2 analytically  !
 ! D64   D(23,15,26,24)        118.4959         calculate D2E/DX2 analytically  !
 ! D65   D(34,15,26,6)         178.8449         calculate D2E/DX2 analytically  !
 ! D66   D(34,15,26,24)         -1.1159         calculate D2E/DX2 analytically  !
 ! D67   D(37,15,26,6)          59.1089         calculate D2E/DX2 analytically  !
 ! D68   D(37,15,26,24)       -120.852          calculate D2E/DX2 analytically  !
 ! D69   D(49,16,17,55)          0.0328         calculate D2E/DX2 analytically  !
 ! D70   D(60,16,17,55)        179.5411         calculate D2E/DX2 analytically  !
 ! D71   D(17,16,49,27)          0.0203         calculate D2E/DX2 analytically  !
 ! D72   D(17,16,49,29)       -179.8362         calculate D2E/DX2 analytically  !
 ! D73   D(60,16,49,27)       -179.461          calculate D2E/DX2 analytically  !
 ! D74   D(60,16,49,29)          0.6825         calculate D2E/DX2 analytically  !
 ! D75   D(17,16,60,1)        -176.6147         calculate D2E/DX2 analytically  !
 ! D76   D(17,16,60,59)          3.3839         calculate D2E/DX2 analytically  !
 ! D77   D(49,16,60,1)           2.8028         calculate D2E/DX2 analytically  !
 ! D78   D(49,16,60,59)       -177.1987         calculate D2E/DX2 analytically  !
 ! D79   D(16,17,55,27)         -0.0788         calculate D2E/DX2 analytically  !
 ! D80   D(16,17,55,35)        179.9582         calculate D2E/DX2 analytically  !
 ! D81   D(48,22,45,36)        179.5979         calculate D2E/DX2 analytically  !
 ! D82   D(48,22,45,42)         -0.0284         calculate D2E/DX2 analytically  !
 ! D83   D(68,22,45,36)         -0.4347         calculate D2E/DX2 analytically  !
 ! D84   D(68,22,45,42)        179.939          calculate D2E/DX2 analytically  !
 ! D85   D(45,22,48,41)          0.0445         calculate D2E/DX2 analytically  !
 ! D86   D(45,22,48,54)        179.3612         calculate D2E/DX2 analytically  !
 ! D87   D(68,22,48,41)       -179.9232         calculate D2E/DX2 analytically  !
 ! D88   D(68,22,48,54)         -0.6066         calculate D2E/DX2 analytically  !
 ! D89   D(7,24,26,6)            0.0534         calculate D2E/DX2 analytically  !
 ! D90   D(7,24,26,15)        -179.9807         calculate D2E/DX2 analytically  !
 ! D91   D(21,24,26,6)        -179.8947         calculate D2E/DX2 analytically  !
 ! D92   D(21,24,26,15)          0.0712         calculate D2E/DX2 analytically  !
 ! D93   D(9,25,59,40)        -179.9786         calculate D2E/DX2 analytically  !
 ! D94   D(9,25,59,60)           0.08           calculate D2E/DX2 analytically  !
 ! D95   D(57,25,59,40)          0.1185         calculate D2E/DX2 analytically  !
 ! D96   D(57,25,59,60)       -179.8229         calculate D2E/DX2 analytically  !
 ! D97   D(12,27,49,16)        179.9612         calculate D2E/DX2 analytically  !
 ! D98   D(12,27,49,29)         -0.1802         calculate D2E/DX2 analytically  !
 ! D99   D(55,27,49,16)         -0.0808         calculate D2E/DX2 analytically  !
 ! D100  D(55,27,49,29)        179.7778         calculate D2E/DX2 analytically  !
 ! D101  D(12,27,55,17)       -179.9414         calculate D2E/DX2 analytically  !
 ! D102  D(12,27,55,35)          0.0158         calculate D2E/DX2 analytically  !
 ! D103  D(49,27,55,17)          0.1024         calculate D2E/DX2 analytically  !
 ! D104  D(49,27,55,35)       -179.9404         calculate D2E/DX2 analytically  !
 ! D105  D(14,28,47,2)          -0.0811         calculate D2E/DX2 analytically  !
 ! D106  D(14,28,47,50)        179.753          calculate D2E/DX2 analytically  !
 ! D107  D(53,28,47,2)         179.9825         calculate D2E/DX2 analytically  !
 ! D108  D(53,28,47,50)         -0.1834         calculate D2E/DX2 analytically  !
 ! D109  D(14,28,53,4)          62.0139         calculate D2E/DX2 analytically  !
 ! D110  D(14,28,53,10)        -58.5678         calculate D2E/DX2 analytically  !
 ! D111  D(14,28,53,20)       -178.3563         calculate D2E/DX2 analytically  !
 ! D112  D(47,28,53,4)        -118.059          calculate D2E/DX2 analytically  !
 ! D113  D(47,28,53,10)        121.3593         calculate D2E/DX2 analytically  !
 ! D114  D(47,28,53,20)          1.5708         calculate D2E/DX2 analytically  !
 ! D115  D(8,35,51,38)         179.8747         calculate D2E/DX2 analytically  !
 ! D116  D(8,35,51,58)          -0.152          calculate D2E/DX2 analytically  !
 ! D117  D(55,35,51,38)         -0.6376         calculate D2E/DX2 analytically  !
 ! D118  D(55,35,51,58)        179.3357         calculate D2E/DX2 analytically  !
 ! D119  D(8,35,55,17)         176.6262         calculate D2E/DX2 analytically  !
 ! D120  D(8,35,55,27)          -3.3284         calculate D2E/DX2 analytically  !
 ! D121  D(51,35,55,17)         -2.8018         calculate D2E/DX2 analytically  !
 ! D122  D(51,35,55,27)        177.2436         calculate D2E/DX2 analytically  !
 ! D123  D(8,36,45,22)          -2.9487         calculate D2E/DX2 analytically  !
 ! D124  D(8,36,45,42)         176.6277         calculate D2E/DX2 analytically  !
 ! D125  D(58,36,45,22)        176.8701         calculate D2E/DX2 analytically  !
 ! D126  D(58,36,45,42)         -3.5536         calculate D2E/DX2 analytically  !
 ! D127  D(8,36,58,51)           0.1875         calculate D2E/DX2 analytically  !
 ! D128  D(8,36,58,56)        -179.8481         calculate D2E/DX2 analytically  !
 ! D129  D(45,36,58,51)       -179.6412         calculate D2E/DX2 analytically  !
 ! D130  D(45,36,58,56)          0.3233         calculate D2E/DX2 analytically  !
 ! D131  D(13,40,59,25)         -1.6277         calculate D2E/DX2 analytically  !
 ! D132  D(13,40,59,60)        178.3051         calculate D2E/DX2 analytically  !
 ! D133  D(31,40,59,25)        117.9841         calculate D2E/DX2 analytically  !
 ! D134  D(31,40,59,60)        -62.0832         calculate D2E/DX2 analytically  !
 ! D135  D(52,40,59,25)       -121.4186         calculate D2E/DX2 analytically  !
 ! D136  D(52,40,59,60)         58.5142         calculate D2E/DX2 analytically  !
 ! D137  D(3,41,42,45)        -179.2766         calculate D2E/DX2 analytically  !
 ! D138  D(48,41,42,45)          0.0198         calculate D2E/DX2 analytically  !
 ! D139  D(3,41,48,22)         179.1842         calculate D2E/DX2 analytically  !
 ! D140  D(3,41,48,54)          -0.123          calculate D2E/DX2 analytically  !
 ! D141  D(42,41,48,22)         -0.0388         calculate D2E/DX2 analytically  !
 ! D142  D(42,41,48,54)       -179.3461         calculate D2E/DX2 analytically  !
 ! D143  D(41,42,45,22)          0.005          calculate D2E/DX2 analytically  !
 ! D144  D(41,42,45,36)       -179.637          calculate D2E/DX2 analytically  !
 ! D145  D(22,48,54,62)       -109.9765         calculate D2E/DX2 analytically  !
 ! D146  D(22,48,54,63)          9.8231         calculate D2E/DX2 analytically  !
 ! D147  D(22,48,54,64)        130.0496         calculate D2E/DX2 analytically  !
 ! D148  D(41,48,54,62)         69.255          calculate D2E/DX2 analytically  !
 ! D149  D(41,48,54,63)       -170.9454         calculate D2E/DX2 analytically  !
 ! D150  D(41,48,54,64)        -50.719          calculate D2E/DX2 analytically  !
 ! D151  D(35,51,58,36)         -0.023          calculate D2E/DX2 analytically  !
 ! D152  D(35,51,58,56)       -179.9892         calculate D2E/DX2 analytically  !
 ! D153  D(38,51,58,36)        179.9507         calculate D2E/DX2 analytically  !
 ! D154  D(38,51,58,56)         -0.0155         calculate D2E/DX2 analytically  !
 ! D155  D(39,56,58,36)       -178.7825         calculate D2E/DX2 analytically  !
 ! D156  D(39,56,58,51)          1.1786         calculate D2E/DX2 analytically  !
 ! D157  D(44,56,58,36)        -58.9643         calculate D2E/DX2 analytically  !
 ! D158  D(44,56,58,51)        120.9968         calculate D2E/DX2 analytically  !
 ! D159  D(61,56,58,36)         61.5218         calculate D2E/DX2 analytically  !
 ! D160  D(61,56,58,51)       -118.5171         calculate D2E/DX2 analytically  !
 ! D161  D(25,59,60,1)          -0.1291         calculate D2E/DX2 analytically  !
 ! D162  D(25,59,60,16)        179.8723         calculate D2E/DX2 analytically  !
 ! D163  D(40,59,60,1)         179.9322         calculate D2E/DX2 analytically  !
 ! D164  D(40,59,60,16)         -0.0664         calculate D2E/DX2 analytically  !
 --------------------------------------------------------------------------------
 Trust Radius=3.00D-01 FncErr=5.00D-06 GrdErr=5.00D-06 EigMax=2.50D+02 EigMin=1.00D-04
 Number of steps in this run=     50 maximum allowed number of steps=    408.
 GradGradGradGradGradGradGradGradGradGradGradGradGradGradGradGradGradGrad

 Stoichiometry    C32H30S6
 Framework group  C1[X(C32H30S6)]
 Deg. of freedom   198
 Full point group                 C1      NOp   1
 Largest Abelian subgroup         C1      NOp   1
 Largest concise Abelian subgroup C1      NOp   1
                         Standard orientation:                         
 ---------------------------------------------------------------------
 Center     Atomic      Atomic             Coordinates (Angstroms)
 Number     Number       Type             X           Y           Z
 ---------------------------------------------------------------------
      1         16           0       -2.111009   -1.015340   -0.090508
      2          6           0       -7.348460   -0.307865    0.009053
      3          6           0       12.270572    0.259498    0.143471
      4          1           0       -3.973119   -3.037491    0.718534
      5         16           0       -6.078065    0.876387    0.021584
      6          6           0       -8.759161    0.046872    0.067471
      7          6           0      -11.265785   -0.123154    0.173315
      8         16           0        5.699196   -0.848076   -0.027685
      9          6           0       -3.446064    0.096240   -0.082861
     10          1           0       -3.975433   -2.943409   -1.056342
     11         16           0       -9.941580   -1.236221    0.133651
     12          6           0        3.198830   -2.692927   -0.219831
     13          1           0       -1.606197    3.652553   -0.141814
     14          6           0       -4.833977   -0.338666   -0.059852
     15          6           0       -8.686703    2.614913    0.036750
     16          6           0        0.474481   -0.091014   -0.122749
     17         16           0        1.751312    1.084458   -0.055172
     18          1           0        2.505998   -3.541025   -0.300235
     19          1           0      -12.934381   -1.229260   -0.633246
     20          1           0       -5.310851   -3.749597   -0.206436
     21          1           0      -11.468078    2.028788    0.156155
     22          6           0        8.804437   -1.253517    0.149130
     23          1           0       -8.028517    2.763544    0.907743
     24          6           0      -10.802556    1.163439    0.139618
     25          6           0       -2.975027    1.390826   -0.092149
     26          6           0       -9.377564    1.283312    0.079862
     27          6           0        2.435315   -1.402592   -0.166518
     28          6           0       -5.383430   -1.609710   -0.093301
     29          1           0        0.408503   -2.265729   -0.229240
     30          1           0      -13.361346    0.258221    0.249193
     31          1           0       -0.244486    2.985020    0.781110
     32          6           0      -12.679852   -0.603196    0.235910
     33          1           0      -12.865495   -1.202117    1.140945
     34          1           0       -9.426434    3.426726    0.037977
     35          6           0        4.378242    0.281749   -0.071391
     36          6           0        6.893420    0.417442    0.012531
     37          1           0       -8.068857    2.727342   -0.868399
     38          1           0        4.219540    2.452080   -0.083925
     39          1           0        6.246133    3.817790    0.000023
     40          6           0       -0.866493    2.841277   -0.116474
     41          6           0       10.815485   -0.087718    0.120131
     42         16           0        9.620715    1.162618    0.028068
     43          1           0        3.877399   -2.730655   -1.086529
     44          1           0        7.607626    3.120433    0.903631
     45          6           0        8.300437    0.026089    0.067896
     46          1           0        3.807522   -2.843767    0.685979
     47          6           0       -6.805476   -1.572332   -0.054583
     48          6           0       10.230187   -1.329563    0.178830
     49          6           0        1.013958   -1.358546   -0.177973
     50          1           0       -7.409140   -2.481828   -0.076990
     51          6           0        4.862341    1.569472   -0.059795
     52          1           0       -0.213296    2.955147   -0.995752
     53          6           0       -4.618420   -2.898395   -0.163311
     54          6           0       10.987184   -2.624446    0.279458
     55          6           0        2.987972   -0.139205   -0.102888
     56          6           0        6.981262    3.001667    0.006052
     57          1           0       -3.627598    2.266307   -0.091160
     58          6           0        6.282934    1.673106   -0.012785
     59          6           0       -1.556946    1.509356   -0.105518
     60          6           0       -0.936128    0.268538   -0.108176
     61          1           0        7.632845    3.132380   -0.871827
     62          1           0       11.476088   -2.730276    1.260791
     63          1           0       10.310626   -3.480253    0.149905
     64          1           0       11.773676   -2.696087   -0.486842
     65          1           0       12.878073   -0.655369    0.127128
     66          1           0       12.558859    0.872748   -0.724360
     67          1           0       12.539341    0.824090    1.050431
     68          1           0        8.171802   -2.143244    0.188616
 ---------------------------------------------------------------------
 Rotational constants (GHZ):           0.3847071           0.0163068           0.0156641
 Standard basis: def2SVP (5D, 7F)
 There are   744 symmetry adapted cartesian basis functions of A   symmetry.
 There are   706 symmetry adapted basis functions of A   symmetry.
   706 basis functions,  1232 primitive gaussians,   744 cartesian basis functions
   159 alpha electrons      159 beta electrons
       nuclear repulsion energy      4691.6055662722 Hartrees.
 NAtoms=   68 NActive=   68 NUniq=   68 SFac= 1.00D+00 NAtFMM=   60 NAOKFM=T Big=T
 Integral buffers will be    131072 words long.
 Raffenetti 2 integral format.
 Two-electron integral symmetry is turned on.
 Nuclear repulsion after empirical dispersion term =     4691.5575796931 Hartrees.
 Force inversion solution in PCM.
 ------------------------------------------------------------------------------
 Polarizable Continuum Model (PCM)
 =================================
 Model                : PCM.
 Atomic radii         : SMD-Coulomb.
 Polarization charges : Total charges.
 Charge compensation  : None.
 Solution method      : Matrix inversion.
 Cavity type          : VdW (van der Waals Surface) (Alpha=1.000).
 Cavity algorithm     : GePol (No added spheres)
                        Default sphere list used, NSphG=   68.
                        Lebedev-Laikov grids with approx.  5.0 points / Ang**2.
                        Smoothing algorithm: York/Karplus (Gamma=1.0000).
                        Polarization charges: spherical gaussians, with
                                              point-specific exponents (IZeta= 3).
                        Self-potential: point-specific (ISelfS= 7).
                        Self-field    : sphere-specific E.n sum rule (ISelfD= 2).
 1st derivatives      : Analytical E(r).r(x)/FMM algorithm (CHGder, D1EAlg=3).
                        Cavity 1st derivative terms included.
 2nd derivatives      : Analytical E(r).r(xy)/FMM algorithm (CHGder, D2EAlg=3).
                        Cavity 2nd derivative terms included.
 Solvent              : Water, Eps=  78.355300 Eps(inf)=   1.777849
 ------------------------------------------------------------------------------
 ------------------------------------------------------------------------------
 Atomic radii for non-electrostatic terms: SMD-CDS.
 ------------------------------------------------------------------------------
 Nuclear repulsion after PCM non-electrostatic terms =     4691.5755501287 Hartrees.
 One-electron integrals computed using PRISM.
   1 Symmetry operations used in ECPInt.
 ECPInt:  NShTT=   54615 NPrTT=  207047 LenC2=   31371 LenP2D=   75584.
 LDataN:  DoStor=T MaxTD1= 4 Len=   56
 NBasis=   706 RedAO= T EigKep=  3.69D-04  NBF=   706
 NBsUse=   706 1.00D-06 EigRej= -1.00D+00 NBFU=   706
 Initial guess from the checkpoint file:  "/users/psyche/volatile/gaussian/nanohybrid/chk/D4_2.chk"
 B after Tr=     0.000000    0.000000   -0.000000
         Rot=    1.000000    0.000000   -0.000000   -0.000000 Ang=   0.00 deg.
 Requested convergence on RMS density matrix=1.00D-08 within 128 cycles.
 Requested convergence on MAX density matrix=1.00D-06.
 Requested convergence on             energy=1.00D-06.
 No special actions if energy rises.
 Inv3:  Mode=1 IEnd=    80124672.
 Iteration    1 A*A^-1 deviation from unit magnitude is 3.77D-15 for   4468.
 Iteration    1 A*A^-1 deviation from orthogonality  is 2.89D-15 for   3200    290.
 Iteration    1 A^-1*A deviation from unit magnitude is 3.55D-15 for   4468.
 Iteration    1 A^-1*A deviation from orthogonality  is 5.80D-14 for   1428   1351.
 Error on total polarization charges =  0.06087
 SCF Done:  E(RwB97XD) =  -3624.59509916     A.U. after    1 cycles
            NFock=  1  Conv=0.27D-08     -V/T= 2.0055
 SMD-CDS (non-electrostatic) energy       (kcal/mol) =      11.28
 (included in total energy above)
 DoSCS=F DFT=T ScalE2(SS,OS)=  1.000000  1.000000
 Range of M.O.s used for correlation:     1   706
 NBasis=   706 NAE=   159 NBE=   159 NFC=     0 NFV=     0
 NROrb=    706 NOA=   159 NOB=   159 NVA=   547 NVB=   547
   1 Symmetry operations used in ECPInt.
 ECPInt:  NShTT=   54615 NPrTT=  207047 LenC2=   31371 LenP2D=   75584.
 LDataN:  DoStor=T MaxTD1= 5 Len=  102
 Number of processors reduced to  28 by ecpmxn.
 Symmetrizing basis deriv contribution to polar:
 IMax=3 JMax=2 DiffMx= 0.00D+00
 G2DrvN: will do    69 centers at a time, making    1 passes.
 Calling FoFCou, ICntrl=  3107 FMM=T I1Cent=   0 AccDes= 0.00D+00.
 NEqPCM:  Using equilibrium solvation (IEInf=0, Eps=  78.3553, EpsInf=   1.7778)
 G2PCM: DoFxE=T DoFxN=T DoGrad=T DoDP/DQ/DG/TGxP=FFFF NFrqRd=   0 IEInf=0 SqF1=F DoCFld=F IF1Alg=4.
 End of G2Drv F.D. properties file   721 does not exist.
 End of G2Drv F.D. properties file   722 does not exist.
 End of G2Drv F.D. properties file   788 does not exist.
          IDoAtm=11111111111111111111111111111111111111111111111111
          IDoAtm=111111111111111111
 NEqPCM:  Using equilibrium solvation (IEInf=0, Eps=  78.3553, EpsInf=   1.7778)
          Differentiating once with respect to electric field.
                with respect to dipole field.
          Differentiating once with respect to nuclear coordinates.
 CalDSu exits because no D1Ps are significant.
          There are   207 degrees of freedom in the 1st order CPHF.  IDoFFX=6 NUNeed=     3.
    206 vectors produced by pass  0 Test12= 8.70D-14 1.00D-09 XBig12= 5.60D+02 1.74D+01.
 AX will form    96 AO Fock derivatives at one time.
    204 vectors produced by pass  1 Test12= 8.70D-14 1.00D-09 XBig12= 3.93D+01 1.07D+00.
    204 vectors produced by pass  2 Test12= 8.70D-14 1.00D-09 XBig12= 1.38D+00 8.91D-02.
    204 vectors produced by pass  3 Test12= 8.70D-14 1.00D-09 XBig12= 1.97D-02 9.96D-03.
    204 vectors produced by pass  4 Test12= 8.70D-14 1.00D-09 XBig12= 2.10D-04 1.19D-03.
    204 vectors produced by pass  5 Test12= 8.70D-14 1.00D-09 XBig12= 1.08D-06 8.03D-05.
    190 vectors produced by pass  6 Test12= 8.70D-14 1.00D-09 XBig12= 6.62D-09 5.95D-06.
     62 vectors produced by pass  7 Test12= 8.70D-14 1.00D-09 XBig12= 2.98D-11 2.97D-07.
      3 vectors produced by pass  8 Test12= 8.70D-14 1.00D-09 XBig12= 1.24D-13 2.19D-08.
      1 vectors produced by pass  9 Test12= 8.70D-14 1.00D-09 XBig12= 8.63D-16 2.30D-09.
 InvSVY:  IOpt=1 It=  1 EMax= 9.50D-15
 Solved reduced A of dimension  1482 with   207 vectors.
 Isotropic polarizability for W=    0.000000      791.90 Bohr**3.
 End of Minotr F.D. properties file   721 does not exist.
 End of Minotr F.D. properties file   722 does not exist.
 End of Minotr F.D. properties file   788 does not exist.

 **********************************************************************

            Population analysis using the SCF density.

 **********************************************************************

 Orbital symmetries:
       Occupied  (A) (A) (A) (A) (A) (A) (A) (A) (A) (A) (A) (A)
                 (A) (A) (A) (A) (A) (A) (A) (A) (A) (A) (A) (A)
                 (A) (A) (A) (A) (A) (A) (A) (A) (A) (A) (A) (A)
                 (A) (A) (A) (A) (A) (A) (A) (A) (A) (A) (A) (A)
                 (A) (A) (A) (A) (A) (A) (A) (A) (A) (A) (A) (A)
                 (A) (A) (A) (A) (A) (A) (A) (A) (A) (A) (A) (A)
                 (A) (A) (A) (A) (A) (A) (A) (A) (A) (A) (A) (A)
                 (A) (A) (A) (A) (A) (A) (A) (A) (A) (A) (A) (A)
                 (A) (A) (A) (A) (A) (A) (A) (A) (A) (A) (A) (A)
                 (A) (A) (A) (A) (A) (A) (A) (A) (A) (A) (A) (A)
                 (A) (A) (A) (A) (A) (A) (A) (A) (A) (A) (A) (A)
                 (A) (A) (A) (A) (A) (A) (A) (A) (A) (A) (A) (A)
                 (A) (A) (A) (A) (A) (A) (A) (A) (A) (A) (A) (A)
                 (A) (A) (A)
       Virtual   (A) (A) (A) (A) (A) (A) (A) (A) (A) (A) (A) (A)
                 (A) (A) (A) (A) (A) (A) (A) (A) (A) (A) (A) (A)
                 (A) (A) (A) (A) (A) (A) (A) (A) (A) (A) (A) (A)
                 (A) (A) (A) (A) (A) (A) (A) (A) (A) (A) (A) (A)
                 (A) (A) (A) (A) (A) (A) (A) (A) (A) (A) (A) (A)
                 (A) (A) (A) (A) (A) (A) (A) (A) (A) (A) (A) (A)
                 (A) (A) (A) (A) (A) (A) (A) (A) (A) (A) (A) (A)
                 (A) (A) (A) (A) (A) (A) (A) (A) (A) (A) (A) (A)
                 (A) (A) (A) (A) (A) (A) (A) (A) (A) (A) (A) (A)
                 (A) (A) (A) (A) (A) (A) (A) (A) (A) (A) (A) (A)
                 (A) (A) (A) (A) (A) (A) (A) (A) (A) (A) (A) (A)
                 (A) (A) (A) (A) (A) (A) (A) (A) (A) (A) (A) (A)
                 (A) (A) (A) (A) (A) (A) (A) (A) (A) (A) (A) (A)
                 (A) (A) (A) (A) (A) (A) (A) (A) (A) (A) (A) (A)
                 (A) (A) (A) (A) (A) (A) (A) (A) (A) (A) (A) (A)
                 (A) (A) (A) (A) (A) (A) (A) (A) (A) (A) (A) (A)
                 (A) (A) (A) (A) (A) (A) (A) (A) (A) (A) (A) (A)
                 (A) (A) (A) (A) (A) (A) (A) (A) (A) (A) (A) (A)
                 (A) (A) (A) (A) (A) (A) (A) (A) (A) (A) (A) (A)
                 (A) (A) (A) (A) (A) (A) (A) (A) (A) (A) (A) (A)
                 (A) (A) (A) (A) (A) (A) (A) (A) (A) (A) (A) (A)
                 (A) (A) (A) (A) (A) (A) (A) (A) (A) (A) (A) (A)
                 (A) (A) (A) (A) (A) (A) (A) (A) (A) (A) (A) (A)
                 (A) (A) (A) (A) (A) (A) (A) (A) (A) (A) (A) (A)
                 (A) (A) (A) (A) (A) (A) (A) (A) (A) (A) (A) (A)
                 (A) (A) (A) (A) (A) (A) (A) (A) (A) (A) (A) (A)
                 (A) (A) (A) (A) (A) (A) (A) (A) (A) (A) (A) (A)
                 (A) (A) (A) (A) (A) (A) (A) (A) (A) (A) (A) (A)
                 (A) (A) (A) (A) (A) (A) (A) (A) (A) (A) (A) (A)
                 (A) (A) (A) (A) (A) (A) (A) (A) (A) (A) (A) (A)
                 (A) (A) (A) (A) (A) (A) (A) (A) (A) (A) (A) (A)
                 (A) (A) (A) (A) (A) (A) (A) (A) (A) (A) (A) (A)
                 (A) (A) (A) (A) (A) (A) (A) (A) (A) (A) (A) (A)
                 (A) (A) (A) (A) (A) (A) (A) (A) (A) (A) (A) (A)
                 (A) (A) (A) (A) (A) (A) (A) (A) (A) (A) (A) (A)
                 (A) (A) (A) (A) (A) (A) (A) (A) (A) (A) (A) (A)
                 (A) (A) (A) (A) (A) (A) (A) (A) (A) (A) (A) (A)
                 (A) (A) (A) (A) (A) (A) (A) (A) (A) (A) (A) (A)
                 (A) (A) (A) (A) (A) (A) (A) (A) (A) (A) (A) (A)
                 (A) (A) (A) (A) (A) (A) (A) (A) (A) (A) (A) (A)
                 (A) (A) (A) (A) (A) (A) (A) (A) (A) (A) (A) (A)
                 (A) (A) (A) (A) (A) (A) (A) (A) (A) (A) (A) (A)
                 (A) (A) (A) (A) (A) (A) (A) (A) (A) (A) (A) (A)
                 (A) (A) (A) (A) (A) (A) (A) (A) (A) (A) (A) (A)
                 (A) (A) (A) (A) (A) (A) (A) (A) (A) (A) (A) (A)
                 (A) (A) (A) (A) (A) (A) (A)
 The electronic state is 1-A.
 Alpha  occ. eigenvalues --  -89.04555 -89.04522 -89.04463 -89.04380 -89.03612
 Alpha  occ. eigenvalues --  -89.03525 -10.34638 -10.34618 -10.34526 -10.34368
 Alpha  occ. eigenvalues --  -10.33954 -10.33911 -10.33838 -10.33824 -10.33823
 Alpha  occ. eigenvalues --  -10.33438 -10.33135 -10.32295 -10.31896 -10.31820
 Alpha  occ. eigenvalues --  -10.31729 -10.31716 -10.31403 -10.30558 -10.30553
 Alpha  occ. eigenvalues --  -10.30469 -10.30416 -10.30394 -10.30046 -10.29972
 Alpha  occ. eigenvalues --  -10.29789 -10.29700 -10.29682 -10.29674 -10.29635
 Alpha  occ. eigenvalues --  -10.29567 -10.29560 -10.29089  -8.09662  -8.09634
 Alpha  occ. eigenvalues --   -8.09573  -8.09483  -8.08768  -8.08744  -6.05041
 Alpha  occ. eigenvalues --   -6.05012  -6.04950  -6.04861  -6.04646  -6.04618
 Alpha  occ. eigenvalues --   -6.04556  -6.04465  -6.04279  -6.04249  -6.04191
 Alpha  occ. eigenvalues --   -6.04132  -6.04107  -6.04102  -6.03744  -6.03725
 Alpha  occ. eigenvalues --   -6.03407  -6.03367  -1.01031  -1.00416  -0.99602
 Alpha  occ. eigenvalues --   -0.98729  -0.97780  -0.97184  -0.89805  -0.88700
 Alpha  occ. eigenvalues --   -0.87729  -0.86980  -0.86666  -0.86298  -0.85987
 Alpha  occ. eigenvalues --   -0.85539  -0.84880  -0.83530  -0.81566  -0.79999
 Alpha  occ. eigenvalues --   -0.78833  -0.77938  -0.77426  -0.77362  -0.77129
 Alpha  occ. eigenvalues --   -0.76605  -0.74835  -0.73491  -0.70485  -0.68903
 Alpha  occ. eigenvalues --   -0.67363  -0.65831  -0.64470  -0.63711  -0.62863
 Alpha  occ. eigenvalues --   -0.61557  -0.60694  -0.60412  -0.60139  -0.59492
 Alpha  occ. eigenvalues --   -0.58406  -0.57789  -0.56085  -0.54153  -0.53152
 Alpha  occ. eigenvalues --   -0.53101  -0.52787  -0.52684  -0.52256  -0.51988
 Alpha  occ. eigenvalues --   -0.51765  -0.51677  -0.51510  -0.51367  -0.51132
 Alpha  occ. eigenvalues --   -0.50699  -0.49915  -0.49698  -0.49162  -0.48467
 Alpha  occ. eigenvalues --   -0.48187  -0.48076  -0.47909  -0.47708  -0.47477
 Alpha  occ. eigenvalues --   -0.47282  -0.47249  -0.46892  -0.46842  -0.46437
 Alpha  occ. eigenvalues --   -0.46368  -0.46038  -0.45407  -0.45117  -0.44901
 Alpha  occ. eigenvalues --   -0.44644  -0.44506  -0.44129  -0.43765  -0.43716
 Alpha  occ. eigenvalues --   -0.43625  -0.42628  -0.42059  -0.41519  -0.41023
 Alpha  occ. eigenvalues --   -0.40639  -0.40461  -0.39233  -0.36481  -0.33490
 Alpha  occ. eigenvalues --   -0.33165  -0.33085  -0.32990  -0.32900  -0.32513
 Alpha  occ. eigenvalues --   -0.32307  -0.29870  -0.26616  -0.24161
 Alpha virt. eigenvalues --   -0.02032   0.00542   0.03345   0.06012   0.08299
 Alpha virt. eigenvalues --    0.09370   0.09488   0.10008   0.10206   0.10427
 Alpha virt. eigenvalues --    0.10971   0.11275   0.12143   0.13138   0.13718
 Alpha virt. eigenvalues --    0.14785   0.15155   0.15685   0.15758   0.16194
 Alpha virt. eigenvalues --    0.16365   0.16570   0.16609   0.16760   0.17107
 Alpha virt. eigenvalues --    0.17753   0.18162   0.18510   0.18775   0.19031
 Alpha virt. eigenvalues --    0.19443   0.19598   0.20336   0.20493   0.21293
 Alpha virt. eigenvalues --    0.21394   0.22099   0.22350   0.22536   0.22771
 Alpha virt. eigenvalues --    0.23073   0.23391   0.23500   0.23876   0.24390
 Alpha virt. eigenvalues --    0.24556   0.24741   0.24944   0.25164   0.25278
 Alpha virt. eigenvalues --    0.25396   0.26369   0.28132   0.28961   0.29564
 Alpha virt. eigenvalues --    0.29952   0.30700   0.31209   0.32303   0.32708
 Alpha virt. eigenvalues --    0.33403   0.34089   0.34223   0.34338   0.34469
 Alpha virt. eigenvalues --    0.34737   0.35561   0.36287   0.36686   0.36775
 Alpha virt. eigenvalues --    0.37004   0.37982   0.38081   0.38257   0.38670
 Alpha virt. eigenvalues --    0.39097   0.39250   0.40111   0.41552   0.42933
 Alpha virt. eigenvalues --    0.43482   0.43740   0.44077   0.44265   0.45318
 Alpha virt. eigenvalues --    0.45496   0.45730   0.46078   0.46428   0.46638
 Alpha virt. eigenvalues --    0.46959   0.47415   0.48411   0.48707   0.48960
 Alpha virt. eigenvalues --    0.49079   0.49191   0.49931   0.50159   0.51294
 Alpha virt. eigenvalues --    0.51608   0.51651   0.51718   0.52061   0.52211
 Alpha virt. eigenvalues --    0.52354   0.52378   0.52576   0.52855   0.53201
 Alpha virt. eigenvalues --    0.53950   0.54418   0.54774   0.55286   0.55543
 Alpha virt. eigenvalues --    0.55644   0.56071   0.56256   0.56822   0.56860
 Alpha virt. eigenvalues --    0.57701   0.58245   0.58409   0.58423   0.59380
 Alpha virt. eigenvalues --    0.59682   0.59860   0.60639   0.61014   0.61577
 Alpha virt. eigenvalues --    0.61601   0.61966   0.62558   0.62607   0.63000
 Alpha virt. eigenvalues --    0.63292   0.64151   0.64924   0.65632   0.66125
 Alpha virt. eigenvalues --    0.66678   0.66984   0.67237   0.67577   0.67788
 Alpha virt. eigenvalues --    0.68304   0.68598   0.69298   0.69740   0.70175
 Alpha virt. eigenvalues --    0.70286   0.70778   0.71034   0.71234   0.71381
 Alpha virt. eigenvalues --    0.71804   0.71862   0.72061   0.72616   0.72960
 Alpha virt. eigenvalues --    0.73365   0.73507   0.73622   0.73771   0.73953
 Alpha virt. eigenvalues --    0.74126   0.74299   0.74772   0.75048   0.75281
 Alpha virt. eigenvalues --    0.75322   0.75538   0.75555   0.75769   0.75967
 Alpha virt. eigenvalues --    0.76062   0.76172   0.76415   0.76610   0.76862
 Alpha virt. eigenvalues --    0.77205   0.77387   0.77590   0.78002   0.78018
 Alpha virt. eigenvalues --    0.78462   0.78529   0.78624   0.78834   0.78896
 Alpha virt. eigenvalues --    0.79002   0.79092   0.79389   0.79499   0.79593
 Alpha virt. eigenvalues --    0.79730   0.79877   0.79988   0.80081   0.80179
 Alpha virt. eigenvalues --    0.80588   0.80676   0.80807   0.81178   0.81428
 Alpha virt. eigenvalues --    0.81853   0.82424   0.83068   0.83363   0.83518
 Alpha virt. eigenvalues --    0.83901   0.84308   0.84795   0.85089   0.85425
 Alpha virt. eigenvalues --    0.86012   0.86684   0.87249   0.87643   0.87814
 Alpha virt. eigenvalues --    0.87905   0.88673   0.88732   0.89956   0.90682
 Alpha virt. eigenvalues --    0.91710   0.92076   0.92394   0.92618   0.92898
 Alpha virt. eigenvalues --    0.93251   0.93363   0.97247   0.97514   0.97815
 Alpha virt. eigenvalues --    0.97970   0.98212   0.98406   0.98615   0.98809
 Alpha virt. eigenvalues --    0.99494   1.00021   1.00283   1.00829   1.01163
 Alpha virt. eigenvalues --    1.02130   1.03053   1.03765   1.04456   1.05378
 Alpha virt. eigenvalues --    1.06737   1.10066   1.10475   1.11684   1.12522
 Alpha virt. eigenvalues --    1.12932   1.13343   1.13660   1.14131   1.14680
 Alpha virt. eigenvalues --    1.15352   1.16694   1.20797   1.21207   1.21337
 Alpha virt. eigenvalues --    1.21688   1.21773   1.21998   1.22357   1.22602
 Alpha virt. eigenvalues --    1.23435   1.23510   1.24354   1.24776   1.26040
 Alpha virt. eigenvalues --    1.27224   1.27498   1.28102   1.28602   1.29293
 Alpha virt. eigenvalues --    1.30187   1.30559   1.31334   1.31956   1.32941
 Alpha virt. eigenvalues --    1.33373   1.34009   1.34675   1.35024   1.35149
 Alpha virt. eigenvalues --    1.35455   1.35679   1.35797   1.35982   1.37404
 Alpha virt. eigenvalues --    1.37540   1.37907   1.38500   1.39096   1.39938
 Alpha virt. eigenvalues --    1.40753   1.42197   1.43337   1.43763   1.44749
 Alpha virt. eigenvalues --    1.45144   1.45726   1.46975   1.48495   1.48771
 Alpha virt. eigenvalues --    1.49032   1.50249   1.50827   1.52033   1.52468
 Alpha virt. eigenvalues --    1.54129   1.54558   1.56421   1.56732   1.58989
 Alpha virt. eigenvalues --    1.59846   1.60775   1.61525   1.62029   1.62235
 Alpha virt. eigenvalues --    1.62285   1.62561   1.62783   1.62919   1.63034
 Alpha virt. eigenvalues --    1.63115   1.63167   1.63207   1.64291   1.64542
 Alpha virt. eigenvalues --    1.65667   1.66857   1.68297   1.69447   1.71889
 Alpha virt. eigenvalues --    1.74199   1.74885   1.74934   1.75418   1.75831
 Alpha virt. eigenvalues --    1.76431   1.76853   1.77496   1.77738   1.78112
 Alpha virt. eigenvalues --    1.78453   1.79440   1.81382   1.82164   1.83616
 Alpha virt. eigenvalues --    1.84066   1.84287   1.84491   1.84663   1.84816
 Alpha virt. eigenvalues --    1.85061   1.85327   1.85428   1.85553   1.86160
 Alpha virt. eigenvalues --    1.86223   1.86499   1.86598   1.87748   1.87876
 Alpha virt. eigenvalues --    1.88605   1.88793   1.89137   1.89176   1.89310
 Alpha virt. eigenvalues --    1.89629   1.89753   1.89922   1.90357   1.90418
 Alpha virt. eigenvalues --    1.90752   1.91270   1.92060   1.92112   1.92932
 Alpha virt. eigenvalues --    1.93082   1.93298   1.94153   1.95678   1.96185
 Alpha virt. eigenvalues --    1.96534   1.97551   1.98221   1.98601   2.00589
 Alpha virt. eigenvalues --    2.02244   2.03334   2.03605   2.04237   2.04747
 Alpha virt. eigenvalues --    2.05087   2.06072   2.06639   2.06688   2.07782
 Alpha virt. eigenvalues --    2.08238   2.08448   2.09295   2.09396   2.09655
 Alpha virt. eigenvalues --    2.10149   2.10608   2.10808   2.11431   2.12196
 Alpha virt. eigenvalues --    2.12456   2.12864   2.13207   2.13588   2.14006
 Alpha virt. eigenvalues --    2.14328   2.14576   2.15541   2.16864   2.18285
 Alpha virt. eigenvalues --    2.18398   2.19254   2.19905   2.20763   2.21823
 Alpha virt. eigenvalues --    2.22783   2.23471   2.24223   2.25813   2.27350
 Alpha virt. eigenvalues --    2.28357   2.28408   2.28919   2.29825   2.30758
 Alpha virt. eigenvalues --    2.31992   2.32440   2.33158   2.33276   2.33829
 Alpha virt. eigenvalues --    2.34332   2.34560   2.34681   2.35473   2.36242
 Alpha virt. eigenvalues --    2.36526   2.37850   2.38251   2.39166   2.39604
 Alpha virt. eigenvalues --    2.40176   2.40725   2.41763   2.42223   2.44010
 Alpha virt. eigenvalues --    2.44529   2.45566   2.47190   2.49951   2.50472
 Alpha virt. eigenvalues --    2.50976   2.52878   2.52961   2.53509   2.53610
 Alpha virt. eigenvalues --    2.53938   2.54674   2.54928   2.55836   2.56522
 Alpha virt. eigenvalues --    2.56720   2.56879   2.57036   2.57129   2.57343
 Alpha virt. eigenvalues --    2.57576   2.57845   2.58451   2.59431   2.62570
 Alpha virt. eigenvalues --    2.65875   2.66232   2.66878   2.68033   2.69283
 Alpha virt. eigenvalues --    2.69532   2.70738   2.71497   2.72147   2.74112
 Alpha virt. eigenvalues --    2.74250   2.75984   2.77080   2.77455   2.78914
 Alpha virt. eigenvalues --    2.79304   2.80556   2.81194   2.81973   2.82481
 Alpha virt. eigenvalues --    2.82757   2.82844   2.83153   2.83339   2.85168
 Alpha virt. eigenvalues --    2.86884   2.87762   2.88422   2.95405   2.96066
 Alpha virt. eigenvalues --    2.98080   2.98929   3.00889   3.01333   3.01367
 Alpha virt. eigenvalues --    3.02052   3.02874   3.02888   3.02924   3.03016
 Alpha virt. eigenvalues --    3.03102   3.03139   3.03391   3.05669   3.05855
 Alpha virt. eigenvalues --    3.05900   3.06566   3.07221   3.08150   3.08572
 Alpha virt. eigenvalues --    3.16316   3.19122   3.22269   3.24639   3.26129
 Alpha virt. eigenvalues --    3.26338   3.32506   3.33892   3.36538   3.39075
 Alpha virt. eigenvalues --    3.41160   3.42639
          Condensed to atoms (all electrons):
 Mulliken charges:
               1
     1  S    0.092114
     2  C   -0.067718
     3  C    0.045434
     4  H    0.066919
     5  S    0.090588
     6  C   -0.113190
     7  C   -0.227769
     8  S    0.085283
     9  C   -0.074284
    10  H    0.065092
    11  S    0.092283
    12  C    0.041803
    13  H    0.058735
    14  C   -0.085807
    15  C    0.036442
    16  C   -0.076884
    17  S    0.093554
    18  H    0.058242
    19  H    0.071613
    20  H    0.058462
    21  H    0.036718
    22  C   -0.081987
    23  H    0.065090
    24  C   -0.056453
    25  C   -0.085993
    26  C   -0.139749
    27  C   -0.132880
    28  C   -0.128526
    29  H    0.043980
    30  H    0.062775
    31  H    0.067082
    32  C    0.044919
    33  H    0.071814
    34  H    0.056573
    35  C   -0.078238
    36  C   -0.082896
    37  H    0.063476
    38  H    0.043826
    39  H    0.056624
    40  C    0.038956
    41  C   -0.289439
    42  S    0.090028
    43  H    0.064692
    44  H    0.062584
    45  C   -0.110546
    46  H    0.066733
    47  C   -0.090448
    48  C   -0.103856
    49  C   -0.084242
    50  H    0.042578
    51  C   -0.086465
    52  H    0.065193
    53  C    0.039793
    54  C    0.027515
    55  C   -0.079416
    56  C    0.037877
    57  H    0.044409
    58  C   -0.131984
    59  C   -0.128130
    60  C   -0.085079
    61  H    0.064264
    62  H    0.063969
    63  H    0.048052
    64  H    0.063134
    65  H    0.057514
    66  H    0.066018
    67  H    0.069404
    68  H    0.039824
 Sum of Mulliken charges =  -0.00000
 Mulliken charges with hydrogens summed into heavy atoms:
               1
     1  S    0.092114
     2  C   -0.067718
     3  C    0.238370
     5  S    0.090588
     6  C   -0.113190
     7  C   -0.227769
     8  S    0.085283
     9  C   -0.074284
    11  S    0.092283
    12  C    0.231470
    14  C   -0.085807
    15  C    0.221581
    16  C   -0.076884
    17  S    0.093554
    22  C   -0.042164
    24  C   -0.019736
    25  C   -0.041584
    26  C   -0.139749
    27  C   -0.132880
    28  C   -0.128526
    32  C    0.251121
    35  C   -0.078238
    36  C   -0.082896
    40  C    0.229967
    41  C   -0.289439
    42  S    0.090028
    45  C   -0.110546
    47  C   -0.047870
    48  C   -0.103856
    49  C   -0.040262
    51  C   -0.042639
    53  C    0.230266
    54  C    0.202671
    55  C   -0.079416
    56  C    0.221349
    58  C   -0.131984
    59  C   -0.128130
    60  C   -0.085079
 APT charges:
               1
     1  S    0.052348
     2  C    0.258271
     3  C    0.034954
     4  H    0.010069
     5  S    0.038710
     6  C   -0.119354
     7  C    0.113860
     8  S    0.038357
     9  C    0.270680
    10  H    0.011186
    11  S   -0.108373
    12  C    0.024933
    13  H    0.016646
    14  C   -0.216766
    15  C    0.022653
    16  C    0.263470
    17  S    0.049465
    18  H    0.015705
    19  H   -0.021722
    20  H    0.013944
    21  H    0.069176
    22  C   -0.092638
    23  H    0.013394
    24  C   -0.360716
    25  C   -0.338894
    26  C    0.184659
    27  C    0.044615
    28  C    0.157979
    29  H    0.098114
    30  H   -0.001650
    31  H    0.005690
    32  C    0.026495
    33  H   -0.020939
    34  H    0.013369
    35  C    0.215130
    36  C   -0.062152
    37  H    0.008928
    38  H    0.104848
    39  H    0.014942
    40  C    0.024767
    41  C   -0.005489
    42  S   -0.037445
    43  H    0.003516
    44  H   -0.000452
    45  C    0.167817
    46  H    0.003226
    47  C   -0.381414
    48  C   -0.158822
    49  C   -0.296838
    50  H    0.091865
    51  C   -0.213292
    52  H    0.006755
    53  C    0.023065
    54  C    0.061718
    55  C   -0.160347
    56  C    0.029504
    57  H    0.097397
    58  C   -0.019413
    59  C    0.104582
    60  C   -0.212906
    61  H   -0.001405
    62  H   -0.020040
    63  H   -0.002486
    64  H   -0.014068
    65  H    0.008397
    66  H   -0.022249
    67  H   -0.031848
    68  H    0.106515
 Sum of APT charges =   0.00000
 APT charges with hydrogens summed into heavy atoms:
               1
     1  S    0.052348
     2  C    0.258271
     3  C   -0.010746
     5  S    0.038710
     6  C   -0.119354
     7  C    0.113860
     8  S    0.038357
     9  C    0.270680
    11  S   -0.108373
    12  C    0.047381
    14  C   -0.216766
    15  C    0.058344
    16  C    0.263470
    17  S    0.049465
    22  C    0.013877
    24  C   -0.291540
    25  C   -0.241497
    26  C    0.184659
    27  C    0.044615
    28  C    0.157979
    32  C   -0.017815
    35  C    0.215130
    36  C   -0.062152
    40  C    0.053858
    41  C   -0.005489
    42  S   -0.037445
    45  C    0.167817
    47  C   -0.289549
    48  C   -0.158822
    49  C   -0.198724
    51  C   -0.108444
    53  C    0.058264
    54  C    0.025125
    55  C   -0.160347
    56  C    0.042588
    58  C   -0.019413
    59  C    0.104582
    60  C   -0.212906
 Electronic spatial extent (au):  <R**2>=          62331.4574
 Charge=             -0.0000 electrons
 Dipole moment (field-independent basis, Debye):
    X=             -0.5654    Y=              0.0213    Z=              0.0787  Tot=              0.5713
 Quadrupole moment (field-independent basis, Debye-Ang):
   XX=           -165.4108   YY=           -232.9369   ZZ=           -278.0077
   XY=            -11.8414   XZ=              0.9751   YZ=              0.1570
 Traceless Quadrupole moment (field-independent basis, Debye-Ang):
   XX=             60.0410   YY=             -7.4851   ZZ=            -52.5559
   XY=            -11.8414   XZ=              0.9751   YZ=              0.1570
 Octapole moment (field-independent basis, Debye-Ang**2):
  XXX=            -71.6719  YYY=              2.7574  ZZZ=              1.5226  XYY=             -7.3931
  XXY=            -17.0682  XXZ=             41.9998  XZZ=             10.4826  YZZ=             -0.4179
  YYZ=             -1.6018  XYZ=             -6.0515
 Hexadecapole moment (field-independent basis, Debye-Ang**3):
 XXXX=         -59088.6196 YYYY=          -3633.8968 ZZZZ=           -391.0066 XXXY=          -1377.3086
 XXXZ=             14.3095 YYYX=            -77.0605 YYYZ=              3.1998 ZZZX=              5.6308
 ZZZY=             -1.4881 XXYY=         -12981.1289 XXZZ=         -14352.2788 YYZZ=           -728.5813
 XXYZ=            -39.2295 YYXZ=             11.1765 ZZXY=             21.3968
 N-N= 4.691575550129D+03 E-N=-1.791988335667D+04  KE= 3.604915898615D+03
  Exact polarizability:1362.391 -15.063 701.736  -0.160   0.886 311.570
 Approx polarizability: 798.471  -5.451 604.477  -0.376   0.670 296.084
   1 Symmetry operations used in ECPInt.
 ECPInt:  NShTT=   54615 NPrTT=  207047 LenC2=   31371 LenP2D=   75584.
 LDataN:  DoStor=T MaxTD1= 6 Len=  172
 D2PCM: PCM CHGder 2nd derivatives, FixD1E=F FixD2E=F DoIter=F DoCFld=F I1PDM=0
 Calling FoFJK, ICntrl=    100127 FMM=F ISym2X=0 I1Cent= 0 IOpClX= 0 NMat=1 NMatS=1 NMatT=0.
 ***** Axes restored to original set *****
 -------------------------------------------------------------------
 Center     Atomic                   Forces (Hartrees/Bohr)
 Number     Number              X              Y              Z
 -------------------------------------------------------------------
      1       16          -0.000054055   -0.000039796    0.000154764
      2        6           0.000055928   -0.000016353   -0.000159461
      3        6           0.000053237   -0.000050780    0.000104240
      4        1          -0.000012829   -0.000003365    0.000000516
      5       16           0.000027330   -0.000068270   -0.000104267
      6        6           0.000055348   -0.000029345   -0.000531020
      7        6           0.000051320   -0.000042742    0.000153928
      8       16           0.000594285   -0.000458788    0.001472344
      9        6          -0.000010633    0.000033715   -0.000318150
     10        1           0.000006666   -0.000024010    0.000008287
     11       16           0.000026797   -0.000050081   -0.000096283
     12        6          -0.000351767    0.000309259   -0.000304140
     13        1           0.000023130    0.000027030   -0.000030612
     14        6          -0.000053880    0.000036970   -0.000027323
     15        6          -0.000024488    0.000030871    0.000060494
     16        6          -0.000242252    0.000312980   -0.000762864
     17       16          -0.000151462   -0.000015931    0.000620686
     18        1          -0.000032219    0.000035818   -0.000051898
     19        1           0.000001235   -0.000002935    0.000001613
     20        1           0.000005455    0.000012012    0.000008460
     21        1          -0.000004959    0.000003557    0.000002131
     22        6          -0.000307674    0.000187554    0.000108612
     23        1          -0.000029137    0.000019094    0.000024561
     24        6          -0.000132844    0.000066521   -0.000018485
     25        6           0.000486126   -0.000426964   -0.000057921
     26        6          -0.000078198    0.000093083    0.000515343
     27        6          -0.001446322    0.001490052   -0.003035676
     28        6           0.000016338    0.000013956   -0.000010448
     29        1          -0.000059516    0.000069951    0.000022598
     30        1           0.000001226   -0.000002965    0.000001256
     31        1           0.000001141   -0.000073752   -0.000023071
     32        6           0.000011608   -0.000011335    0.000010465
     33        1           0.000007453   -0.000004223   -0.000002787
     34        1           0.000007276    0.000020509    0.000010932
     35        6           0.000174161   -0.000144744   -0.001401958
     36        6          -0.000526058    0.000513961    0.008281039
     37        1          -0.000032469   -0.000013444    0.000006918
     38        1           0.000119368   -0.000102085   -0.000067047
     39        1           0.000000246   -0.000046287   -0.000173623
     40        6           0.000088667   -0.000075854   -0.000213061
     41        6           0.000775817   -0.000568710    0.001105230
     42       16          -0.001110099    0.001125337    0.001902992
     43        1          -0.000171175    0.000027822   -0.000004825
     44        1           0.000171150   -0.000435390   -0.000225921
     45        6          -0.000822385    0.000677792    0.000954457
     46        1          -0.000140987    0.000231224   -0.000044252
     47        6          -0.000027929    0.000017511    0.000107151
     48        6          -0.001021099    0.000742535   -0.001048474
     49        6          -0.000997414    0.000847988    0.000670192
     50        1          -0.000022255    0.000016302    0.000009817
     51        6           0.002217019   -0.001863076   -0.000371966
     52        1           0.000109205   -0.000041140   -0.000053378
     53        6          -0.000001966    0.000010499    0.000004475
     54        6          -0.000049236    0.000038455   -0.000129322
     55        6           0.001086381   -0.001139851    0.002969747
     56        6           0.000425826   -0.000359482   -0.001188286
     57        1           0.000057174   -0.000041347   -0.000037639
     58        6           0.000765593   -0.000796974   -0.008425136
     59        6           0.000146346   -0.000037411   -0.001536371
     60        6          -0.000040650    0.000009194    0.001380838
     61        1           0.000423566   -0.000040460   -0.000187949
     62        1          -0.000001853    0.000016307    0.000013689
     63        1           0.000004194   -0.000010936   -0.000010168
     64        1          -0.000030157    0.000018410    0.000005788
     65        1          -0.000017082    0.000069430    0.000043381
     66        1          -0.000039237   -0.000016043    0.000029780
     67        1          -0.000018647    0.000012592   -0.000032126
     68        1           0.000066320   -0.000083422   -0.000080818
 -------------------------------------------------------------------
 Cartesian Forces:  Max     0.008425136 RMS     0.001000703
 FormGI is forming the generalized inverse of G from B-inverse, IUseBI=4.

 GradGradGradGradGradGradGradGradGradGradGradGradGradGradGradGradGradGrad
 Berny optimization.
 Internal  Forces:  Max     0.011946115 RMS     0.000987184
 Search for a local minimum.
 Step number   1 out of a maximum of   50
 All quantities printed in internal units (Hartrees-Bohrs-Radians)
 Mixed Optimization -- En-DIIS/RFO-DIIS
 Second derivative matrix not updated -- analytic derivatives used.
 ITU=  0
     Eigenvalues ---   -0.00075  -0.00055  -0.00037  -0.00009  -0.00005
     Eigenvalues ---    0.00008   0.00056   0.00074   0.00309   0.00333
     Eigenvalues ---    0.00396   0.00451   0.00583   0.01338   0.01366
     Eigenvalues ---    0.01371   0.01382   0.01386   0.01392   0.01399
     Eigenvalues ---    0.01419   0.01585   0.01609   0.01646   0.01669
     Eigenvalues ---    0.01693   0.01724   0.01732   0.01750   0.01796
     Eigenvalues ---    0.01872   0.02092   0.02111   0.02198   0.02257
     Eigenvalues ---    0.02300   0.02492   0.03269   0.03282   0.03337
     Eigenvalues ---    0.03352   0.03368   0.03435   0.03886   0.03945
     Eigenvalues ---    0.03976   0.04020   0.04103   0.04122   0.05407
     Eigenvalues ---    0.05501   0.05508   0.05523   0.05529   0.05533
[...]
 Alpha virt. eigenvalues --    1.27493   1.28094   1.28480   1.28942   1.29542
 Alpha virt. eigenvalues --    1.30108   1.30796   1.30908   1.31836   1.32713
 Alpha virt. eigenvalues --    1.33293   1.33740   1.34162   1.35383   1.35791
 Alpha virt. eigenvalues --    1.36569   1.37024   1.37949   1.38441   1.39545
 Alpha virt. eigenvalues --    1.40419   1.41547   1.42659   1.44347   1.45562
 Alpha virt. eigenvalues --    1.46084   1.47133   1.47406   1.48293   1.48727
 Alpha virt. eigenvalues --    1.49689   1.50959   1.51351   1.51607   1.52069
 Alpha virt. eigenvalues --    1.52599   1.52813   1.54461   1.56299   1.59246
 Alpha virt. eigenvalues --    1.59540   1.60065   1.60625   1.61050   1.61174
 Alpha virt. eigenvalues --    1.61821   1.62309   1.62569   1.62762   1.63152
 Alpha virt. eigenvalues --    1.63418   1.63752   1.64019   1.64229   1.64535
 Alpha virt. eigenvalues --    1.64759   1.64954   1.65002   1.71173   1.72589
 Alpha virt. eigenvalues --    1.74079   1.74973   1.76356   1.77306   1.77815
 Alpha virt. eigenvalues --    1.77830   1.78423   1.78656   1.79385   1.79703
 Alpha virt. eigenvalues --    1.79960   1.80617   1.81382   1.82367   1.83394
 Alpha virt. eigenvalues --    1.83842   1.84297   1.84450   1.84926   1.85009
 Alpha virt. eigenvalues --    1.85416   1.85520   1.85571   1.85698   1.86139
 Alpha virt. eigenvalues --    1.86373   1.86578   1.86980   1.87957   1.88552
 Alpha virt. eigenvalues --    1.89074   1.89117   1.89328   1.89497   1.89939
 Alpha virt. eigenvalues --    1.90161   1.90361   1.90644   1.90844   1.91632
 Alpha virt. eigenvalues --    1.91954   1.92172   1.92306   1.92815   1.92975
 Alpha virt. eigenvalues --    1.93292   1.93630   1.93877   1.95016   1.95791
 Alpha virt. eigenvalues --    1.95873   1.96541   1.97067   1.97829   1.98559
 Alpha virt. eigenvalues --    1.98889   1.99391   2.00508   2.01867   2.02777
 Alpha virt. eigenvalues --    2.04806   2.05397   2.07224   2.07574   2.08144
 Alpha virt. eigenvalues --    2.08604   2.08712   2.09059   2.09416   2.09685
 Alpha virt. eigenvalues --    2.09788   2.10018   2.10512   2.10943   2.11826
 Alpha virt. eigenvalues --    2.12768   2.13207   2.13904   2.14376   2.14985
 Alpha virt. eigenvalues --    2.15785   2.16128   2.16850   2.17248   2.17886
 Alpha virt. eigenvalues --    2.18634   2.19020   2.20382   2.21266   2.21653
 Alpha virt. eigenvalues --    2.22753   2.23557   2.23864   2.26224   2.26534
 Alpha virt. eigenvalues --    2.26957   2.27345   2.27769   2.28335   2.29122
 Alpha virt. eigenvalues --    2.29255   2.29850   2.30864   2.31767   2.33282
 Alpha virt. eigenvalues --    2.34472   2.34840   2.35364   2.35809   2.36240
 Alpha virt. eigenvalues --    2.37174   2.37424   2.39159   2.40430   2.40897
 Alpha virt. eigenvalues --    2.41287   2.41774   2.42255   2.43384   2.43766
 Alpha virt. eigenvalues --    2.45065   2.45750   2.47077   2.48158   2.49245
 Alpha virt. eigenvalues --    2.50473   2.50689   2.51014   2.51385   2.52620
 Alpha virt. eigenvalues --    2.53878   2.54791   2.55185   2.55510   2.55691
 Alpha virt. eigenvalues --    2.55773   2.56268   2.56611   2.58683   2.58975
 Alpha virt. eigenvalues --    2.59411   2.59814   2.60032   2.60350   2.60881
 Alpha virt. eigenvalues --    2.65457   2.65493   2.66722   2.67636   2.68717
 Alpha virt. eigenvalues --    2.69530   2.70630   2.71677   2.72073   2.73320
 Alpha virt. eigenvalues --    2.73541   2.75268   2.76242   2.76959   2.78226
 Alpha virt. eigenvalues --    2.78813   2.79981   2.80639   2.81663   2.81878
 Alpha virt. eigenvalues --    2.82244   2.82596   2.82985   2.83025   2.84821
 Alpha virt. eigenvalues --    2.86504   2.87313   2.88781   2.94800   2.95485
 Alpha virt. eigenvalues --    2.97501   2.98238   3.00204   3.00672   3.01241
 Alpha virt. eigenvalues --    3.01391   3.02181   3.02603   3.02913   3.03009
 Alpha virt. eigenvalues --    3.03289   3.03481   3.04160   3.04359   3.04588
 Alpha virt. eigenvalues --    3.05021   3.05385   3.06105   3.07184   3.07780
 Alpha virt. eigenvalues --    3.16352   3.18975   3.21504   3.23688   3.25048
 Alpha virt. eigenvalues --    3.25437   3.31380   3.33420   3.36340   3.39075
 Alpha virt. eigenvalues --    3.41204   3.42540
          Condensed to atoms (all electrons):
 Mulliken charges:
               1
     1  S    0.126995
     2  C   -0.106029
     3  C    0.047149
     4  H    0.071669
     5  S    0.126922
     6  C   -0.129407
     7  C   -0.236750
     8  S    0.128122
     9  C   -0.106123
    10  H    0.056119
    11  S    0.102547
    12  C    0.036193
    13  H    0.058382
    14  C   -0.115956
    15  C    0.032884
    16  C   -0.102286
    17  S    0.121456
    18  H    0.058085
    19  H    0.071288
    20  H    0.057950
    21  H    0.036398
    22  C   -0.052124
    23  H    0.069902
    24  C   -0.058813
    25  C   -0.064264
    26  C   -0.115198
    27  C   -0.112687
    28  C   -0.110857
    29  H    0.042012
    30  H    0.062201
    31  H    0.071611
    32  C    0.044732
    33  H    0.070962
    34  H    0.056292
    35  C   -0.115377
    36  C   -0.114325
    37  H    0.053710
    38  H    0.040886
    39  H    0.056870
    40  C    0.036510
    41  C   -0.296525
    42  S    0.107872
    43  H    0.071776
    44  H    0.052452
    45  C   -0.141932
    46  H    0.055656
    47  C   -0.069819
    48  C   -0.114895
    49  C   -0.070926
    50  H    0.039756
    51  C   -0.063275
    52  H    0.057872
    53  C    0.035865
    54  C    0.037497
    55  C   -0.107449
    56  C    0.038178
    57  H    0.041541
    58  C   -0.112839
    59  C   -0.119242
    60  C   -0.107271
    61  H    0.069740
    62  H    0.061323
    63  H    0.048228
    64  H    0.058176
    65  H    0.066098
    66  H    0.054542
    67  H    0.073210
    68  H    0.036737
 Sum of Mulliken charges =  -0.00000
 Mulliken charges with hydrogens summed into heavy atoms:
               1
     1  S    0.126995
     2  C   -0.106029
     3  C    0.240999
     5  S    0.126922
     6  C   -0.129407
     7  C   -0.236750
     8  S    0.128122
     9  C   -0.106123
    11  S    0.102547
    12  C    0.221710
    14  C   -0.115956
    15  C    0.212788
    16  C   -0.102286
    17  S    0.121456
    22  C   -0.015387
    24  C   -0.022415
    25  C   -0.022724
    26  C   -0.115198
    27  C   -0.112687
    28  C   -0.110857
    32  C    0.249183
    35  C   -0.115377
    36  C   -0.114325
    40  C    0.224375
    41  C   -0.296525
    42  S    0.107872
    45  C   -0.141932
    47  C   -0.030063
    48  C   -0.114895
    49  C   -0.028914
    51  C   -0.022388
    53  C    0.221604
    54  C    0.205225
    55  C   -0.107449
    56  C    0.217240
    58  C   -0.112839
    59  C   -0.119242
    60  C   -0.107271
 APT charges:
               1
     1  S    0.107638
     2  C   -0.040854
     3  C   -1.458928
     4  H   -0.002233
     5  S    0.066592
     6  C   -0.445839
     7  C   -0.281370
     8  S    0.171319
     9  C   -0.106657
    10  H   -0.302919
    11  S    0.010552
    12  C   -0.851129
    13  H    0.709061
    14  C   -0.479126
    15  C   -0.484912
    16  C   -0.274191
    17  S    0.121440
    18  H    0.274967
    19  H    0.980882
    20  H    1.172905
    21  H    1.697872
    22  C    0.010268
    23  H   -0.346726
    24  C   -1.481998
    25  C   -0.856511
    26  C   -0.105188
    27  C   -0.375607
    28  C   -0.298579
    29  H    0.377262
    30  H    1.578041
    31  H    0.238584
    32  C   -1.603496
    33  H    0.420346
    34  H    1.626610
    35  C   -0.384779
    36  C   -0.065261
    37  H   -0.688317
    38  H   -0.090423
    39  H   -0.108579
    40  C   -0.707018
    41  C   -0.724727
    42  S    0.106627
    43  H    0.576655
    44  H    1.204095
    45  C   -0.583020
    46  H    0.591409
    47  C   -1.162496
    48  C   -0.155678
    49  C   -0.580463
    50  H    1.232746
    51  C   -0.269040
    52  H    0.171035
    53  C   -0.603834
    54  C   -1.348864
    55  C   -0.245214
    56  C   -0.959380
    57  H    0.772346
    58  C   -0.477670
    59  C   -0.371125
    60  C   -0.331422
    61  H    0.608543
    62  H    1.406464
    63  H   -0.436598
    64  H    1.308482
    65  H    1.162149
    66  H    0.483684
    67  H    1.258180
    68  H   -0.356582
 Sum of APT charges =  -0.00000
 APT charges with hydrogens summed into heavy atoms:
               1
     1  S    0.107638
     2  C   -0.040854
     3  C    1.445085
     5  S    0.066592
     6  C   -0.445839
     7  C   -0.281370
     8  S    0.171319
     9  C   -0.106657
    11  S    0.010552
    12  C    0.591902
    14  C   -0.479126
    15  C    0.106655
    16  C   -0.274191
    17  S    0.121440
    22  C   -0.346314
    24  C    0.215874
    25  C   -0.084166
    26  C   -0.105188
    27  C   -0.375607
    28  C   -0.298579
    32  C    1.375772
    35  C   -0.384779
    36  C   -0.065261
    40  C    0.411662
    41  C   -0.724727
    42  S    0.106627
    45  C   -0.583020
    47  C    0.070251
    48  C   -0.155678
    49  C   -0.203201
    51  C   -0.359463
    53  C    0.263919
    54  C    0.929484
    55  C   -0.245214
    56  C    0.744678
    58  C   -0.477670
    59  C   -0.371125
    60  C   -0.331422
 Electronic spatial extent (au):  <R**2>=          61644.2804
 Charge=             -0.0000 electrons
 Dipole moment (field-independent basis, Debye):
    X=              0.3888    Y=             -0.0951    Z=             -0.3013  Tot=              0.5010
 Quadrupole moment (field-independent basis, Debye-Ang):
   XX=           -166.2371   YY=           -237.8947   ZZ=           -271.8665
   XY=            -10.8692   XZ=              1.9004   YZ=             -0.4593
 Traceless Quadrupole moment (field-independent basis, Debye-Ang):
   XX=             59.0957   YY=            -12.5619   ZZ=            -46.5338
   XY=            -10.8692   XZ=              1.9004   YZ=             -0.4593
 Octapole moment (field-independent basis, Debye-Ang**2):
  XXX=             64.4636  YYY=            -10.6634  ZZZ=              4.2923  XYY=            -12.0927
  XXY=             21.8227  XXZ=             49.9244  XZZ=              1.3245  YZZ=             11.2267
  YYZ=             -7.2021  XYZ=             33.7581
 Hexadecapole moment (field-independent basis, Debye-Ang**3):
 XXXX=         -58734.5595 YYYY=          -3340.0579 ZZZZ=          -1012.6887 XXXY=          -1335.2699
 XXXZ=          -1308.5513 YYYX=            -55.7933 YYYZ=              1.1590 ZZZX=            -50.9766
 ZZZY=             -3.5633 XXYY=         -12946.2198 XXZZ=         -13909.7824 YYZZ=           -738.2295
 XXYZ=            -95.8048 YYXZ=            112.1517 ZZXY=             34.5831
 N-N= 4.692816153816D+03 E-N=-1.792267811973D+04  KE= 3.604998255140D+03
  Exact polarizability:   0.000   0.000   0.000   0.000   0.000   0.000
 Approx polarizability: 726.896  -7.739 576.157 -14.393  -8.266 332.091
 Rotating derivatives to standard orientation.
 ***** Axes restored to original set *****
 -------------------------------------------------------------------
 Center     Atomic                   Forces (Hartrees/Bohr)
 Number     Number              X              Y              Z
 -------------------------------------------------------------------
      1       16           0.000000020   -0.000000547    0.000000095
      2        6          -0.000000162   -0.000000053   -0.000000089
      3        6           0.000000291    0.000000224    0.000000247
      4        1          -0.000000417   -0.000000291   -0.000000205
      5       16           0.000000066    0.000000143   -0.000000272
      6        6           0.000000196   -0.000000007   -0.000000252
      7        6           0.000000007   -0.000000008   -0.000000076
      8       16          -0.000000241   -0.000000031    0.000000084
      9        6          -0.000000071   -0.000000063   -0.000000132
     10        1          -0.000000869    0.000000032   -0.000000500
     11       16          -0.000000227   -0.000000201    0.000000001
     12        6          -0.000000237   -0.000000513    0.000000106
     13        1           0.000000363    0.000000654   -0.000000442
     14        6           0.000000214    0.000000027   -0.000000226
     15        6           0.000000230    0.000000523   -0.000000308
     16        6          -0.000000077    0.000000145    0.000000153
     17       16           0.000000425    0.000000396    0.000000269
     18        1          -0.000000435   -0.000000726    0.000000055
     19        1          -0.000000159   -0.000000181   -0.000000110
     20        1          -0.000000521   -0.000000609   -0.000000379
     21        1           0.000000252    0.000000430   -0.000000180
     22        6          -0.000000343   -0.000000277    0.000000279
     23        1           0.000000345    0.000000650   -0.000000085
     24        6           0.000000131    0.000000211   -0.000000225
     25        6           0.000000036    0.000000152   -0.000000341
     26        6           0.000000055    0.000000308   -0.000000205
     27        6          -0.000000064   -0.000000470    0.000000217
     28        6          -0.000000221   -0.000000335   -0.000000169
     29        1          -0.000000425   -0.000000412   -0.000000067
     30        1           0.000000093    0.000000137    0.000000005
     31        1           0.000000186    0.000000015   -0.000000445
     32        6          -0.000000052   -0.000000048    0.000000034
     33        1          -0.000000026   -0.000000181    0.000000215
     34        1           0.000000283    0.000000616   -0.000000409
     35        6           0.000000327   -0.000000131    0.000000411
     36        6          -0.000000225   -0.000000087    0.000000327
     37        1           0.000000177    0.000000471   -0.000000396
     38        1           0.000000386    0.000000340    0.000000428
     39        1           0.000000446    0.000000401    0.000000709
     40        6           0.000000093    0.000000411   -0.000000264
     41        6           0.000000027    0.000000115    0.000000483
     42       16           0.000000258    0.000000004    0.000000029
     43        1          -0.000000412   -0.000000485   -0.000000138
     44        1           0.000000527    0.000000270    0.000000642
     45        6           0.000000298    0.000000089    0.000000256
     46        1          -0.000000252   -0.000000630    0.000000267
     47        6          -0.000000292   -0.000000197   -0.000000057
     48        6          -0.000000020   -0.000000183   -0.000000062
     49        6          -0.000000129   -0.000000216   -0.000000117
     50        1          -0.000000248   -0.000000341   -0.000000216
     51        6           0.000000170    0.000000369    0.000000043
     52        1           0.000000183    0.000000710   -0.000000419
     53        6          -0.000000046   -0.000000737   -0.000000240
     54        6          -0.000000322   -0.000000524    0.000000169
     55        6          -0.000000292    0.000000032   -0.000000155
     56        6           0.000000444    0.000000487    0.000000569
     57        1           0.000000087    0.000000442   -0.000000230
     58        6           0.000000326    0.000000184    0.000000170
     59        6           0.000000088    0.000000410   -0.000000280
     60        6           0.000000002    0.000000009   -0.000000168
     61        1           0.000000424    0.000000521    0.000000378
     62        1          -0.000000178   -0.000000415    0.000000417
     63        1          -0.000000313   -0.000000564    0.000000137
     64        1          -0.000000124   -0.000000407    0.000000054
     65        1          -0.000000160    0.000000034    0.000000010
     66        1           0.000000239    0.000000378   -0.000000026
     67        1           0.000000125   -0.000000058    0.000000387
     68        1          -0.000000262   -0.000000414    0.000000238
 -------------------------------------------------------------------
 Cartesian Forces:  Max     0.000000869 RMS     0.000000313
 1\1\GINC-NODE006\FOpt\RwB97XD\def2SVP\C32H30S6\PSYCHE\10-Feb-2020\0\\#
  wB97XD/Def2SVP # Geom=Checkpoint Guess=Read # Opt=(recalc=5, maxcycle
 =50) # SCRF=(SMD,Solvent=Water) # Integral=(Grid=UltraFineGrid)\\Geome
 try optimisation, Mol: D4\\0,1\S,-1.9758061387,1.6419862416,-0.4504314
 359\C,-5.6781881464,4.7394795242,1.5966198458\C,9.2823238108,-7.125782
 2557,-2.1719662769\H,-4.1397725815,3.1832050486,-2.1379538793\S,-4.501
 2015752,3.7192374124,2.3594827907\C,-6.7894895019,5.3309093021,2.33330
 07689\C,-9.040541086,6.2922093305,2.8974911058\S,4.0947360416,-3.03778
 88727,-2.0860534187\C,-2.4464057542,2.6342878559,0.8912785688\H,-2.718
 1072833,4.151369581,-1.6938724321\S,-8.2915459403,5.6131829788,1.49292
 54468\C,1.6649777463,-1.356094441,-3.5053770931\H,0.5760020269,2.02263
 50535,3.46757705\C,-3.6532248248,3.4516800009,0.8655912816\C,-5.781934
 7803,5.6468181719,4.6736553389\C,0.3075498821,0.1184786146,-0.31408857
 09\S,1.2938197942,-1.0425974824,0.5166568399\H,0.867860258,-0.96489247
 3,-4.1523697435\H,-10.5692998202,7.6123109137,2.1358909141\H,-4.239145
 7104,4.9532868729,-2.1551485404\H,-8.4322885505,6.6664762219,4.9373994
 805\C,6.1454640499,-5.2880886113,-3.2012067777\H,-5.7274084827,4.64044
 58782,5.1199467176\C,-8.1669297172,6.2811585035,3.9507570188\C,-1.5635
 425382,2.4691008181,1.9340706544\C,-6.8769191719,5.7369750415,3.650394
 7919\C,1.361730712,-1.0538164351,-2.0667512357\C,-4.2721926538,4.10378
 08884,-0.1855217244\H,-0.0574787001,0.6086199863,-2.4005296021\H,-10.7
 316192301,7.1707174577,3.8538619951\H,0.4284751994,0.2854705612,3.1442
 864697\C,-10.4486374375,6.793333627,2.8617818189\H,-11.156022578,5.997
 1592547,2.5827612782\H,-5.9662428811,6.3568779298,5.4918035515\C,2.848
 3353522,-2.8110451928,-0.9005327097\C,4.727142926,-4.4328167687,-1.265
 5189916\H,-4.7954386515,5.8715202522,4.2420808416\H,2.2710872534,-3.82
 44101253,0.9328679215\H,3.3805000498,-6.0730112536,1.4096196349\C,0.58
 07270793,1.2680833928,2.669300676\C,8.0095658898,-6.3497365256,-2.2994
 980468\S,7.1197721246,-5.8480570704,-0.9048015024\H,2.6086335435,-0.88
 5924051,-3.82601074\H,4.6273411277,-6.72974341,0.3195172533\C,5.857518
 129,-5.1366917152,-1.8638132754\H,1.7537070493,-2.4371291205,-3.686755
 8836\C,-5.4195272768,4.8299979843,0.2477746643\C,7.3674187276,-5.97929
 2867,-3.4595624785\C,0.4627398409,-0.020265627,-1.6750790671\H,-6.0277
 190858,5.427686127,-0.4340745895\C,2.9573328321,-3.7649106053,0.085518
 3414\H,1.5803966574,1.2638410003,2.2099006091\C,-3.8137636496,4.096553
 7951,-1.6147409188\C,7.8853745403,-6.2968429113,-4.8327944285\C,1.8955
 240724,-1.7093704401,-0.9720108394\C,4.2898457104,-5.8245697625,0.8448
 882453\H,-1.6568911759,3.0027957186,2.8819904314\C,4.0202966683,-4.695
 4884966,-0.1067346726\C,-0.4945462888,1.5659565025,1.6656538742\C,-0.5
 77101335,1.0393427867,0.3886094505\H,5.0682306397,-5.5563719167,1.5773
 602837\H,7.8503625656,-7.3796552472,-5.033892934\H,7.2892511175,-5.791
 7413811,-5.6050629438\H,8.9337584494,-5.9809119702,-4.9499038887\H,10.
 0360358653,-6.7440715729,-2.8775241537\H,9.7043167374,-7.0638054101,-1
 .159248135\H,9.1230470619,-8.1912159019,-2.4056105724\H,5.4904570157,-
 4.9207607161,-3.9944204529\\Version=ES64L-G16RevA.03\State=1-A\HF=-362
 4.5965772\RMSD=8.007e-09\RMSF=3.132e-07\Dipole=0.1843774,0.0043596,-0.
 0695611\Polar=0.,0.,0.,0.,0.,0.\Quadrupole=7.1960532,-4.8835704,-2.312
 4827,-35.2526594,-15.5082098,12.2859438\PG=C01 [X(C32H30S6)]\\@


 WE LEARN WISDOM FROM FAILURE MUCH MORE THAN FROM SUCCESS.
 WE DISCOVER WHAT WILL DO BY FINDING OUT WHAT WILL NOT DO...
 AND HE WHO NEVER MADE A MISTAKE NEVER MADE A DISCOVERY
 Job cpu time:       4 days  0 hours 46 minutes  6.4 seconds.
 Elapsed time:       0 days  2 hours 31 minutes 54.3 seconds.
 File lengths (MBytes):  RWF=   4496 Int=      0 D2E=      0 Chk=     70 Scr=      1
 Normal termination of Gaussian 16 at Mon Feb 10 02:53:16 2020.
